154
Atoms. Timestep: 0
C 2.59707 1.08634 -2.34565
C 10.24061 0.46877 -3.4264
C 3.86197 1.36047 -1.55192
C 5.08993 1.4373 -2.45699
C 6.34748 1.79996 -1.65915
C 10.51826 6.76194 -6.42295
C 8.55706 3.84777 2.39507
C 10.40446 7.63238 -5.18112
C 9.2476 5.12044 1.92933
C 7.58661 1.81026 -2.55536
C 10.68414 5.3689 -5.83815
C 8.63825 2.95527 1.16686
C 10.05621 2.91038 -4.04131
C 9.91916 7.00876 -2.75319
C 9.61516 6.13507 -0.39496
C 10.12959 1.89572 -2.88693
C 9.54084 6.8079 -4.22058
C 8.70078 5.31802 0.51602
C 9.11145 6.06831 -1.84225
C 8.95544 2.10473 -1.87443
C 9.67322 5.3415 -4.6899
C 8.38161 3.90028 -0.01649
C 10.01885 4.36808 -3.54698
C 9.02291 4.61048 -2.38388
C 9.17246 3.5355 -1.28431
C 2.9195 2.27208 2.43064
C 0.5861 10.50325 1.34494
C 4.78415 5.65945 -2.08791
C 1.45706 2.60076 2.73437
C 1.45003 10.94059 0.16179
C 5.22747 7.10381 -2.09638
C 3.5376 3.55298 1.84976
C 0.15228 9.03551 1.26593
C 4.19712 5.26965 -0.73321
C 3.4254 10.41316 -1.30701
C 4.55957 9.43293 -1.53722
C -3.8e-04 4.67135 2.28745
C 0.11618 6.18438 2.1325
C 1.37708 4.10952 2.55984
C 2.60301 9.95733 -0.11089
C 4.03109 8.04114 -1.89253
C 2.33607 4.38686 1.39184
C 1.36553 8.12249 1.02022
C 1.11615 6.60236 1.03422
C 3.53402 6.41036 0.07388
C 2.02841 8.54088 -0.30697
C 2.96362 7.4677 -0.91175
C 2.51898 5.91093 1.18131
C -2.14774 1.70993 0.15303
C -3.46752 1.08314 -0.27609
C -0.90977 1.02609 -0.41064
C -2.25624 -3.71551 -0.55015
C -3.67049 -0.35163 0.20326
C -0.67787 -0.37463 0.14894
C -3.45495 -2.81601 -0.30897
C -1.10414 -2.85973 -0.05887
C -2.97096 -1.39733 -0.66799
C -1.42706 -1.46531 -0.61344
H 1.73568 1.04803 -1.67479
H 2.66268 0.12854 -2.8706
H 2.41571 1.87485 -3.08308
H 9.4906 0.25675 -4.194
H 10.13687 -0.26586 -2.62166
H 11.22553 0.3187 -3.88412
H 3.99977 0.5755 -0.80002
H 3.73859 2.30015 -1.01021
H 4.92485 2.19742 -3.23228
H 5.23001 0.47851 -2.96859
H 6.48948 1.09743 -0.83114
H 6.16909 2.78667 -1.23957
H 11.3588 7.05043 -7.0598
H 9.59812 6.82122 -7.01669
H 7.51013 4.04949 2.65181
H 9.04645 3.4033 3.26656
H 9.95606 8.60577 -5.40258
H 11.40198 7.80991 -4.76188
H 10.33264 4.97626 1.91677
H 9.02268 5.97106 2.58034
H 7.40627 2.505 -3.3815
H 7.64299 0.81559 -3.01382
H 11.70697 5.23542 -5.46715
H 10.48607 4.58885 -6.58096
H 7.91185 2.13784 1.20681
H 9.63948 2.51096 1.10618
H 9.1836 2.7034 -4.67216
H 10.9312 2.7757 -4.69036
H 9.73836 8.04825 -2.46423
H 10.99408 6.83267 -2.61219
H 10.64833 5.76933 -0.33969
H 9.63464 7.17535 -0.04748
H 11.06861 2.07783 -2.34367
H 8.49194 7.11159 -4.34969
H 7.74602 5.85765 0.60116
H 8.08508 6.45747 -1.83513
H 9.08661 1.37368 -1.06622
H 8.70104 5.0472 -5.11273
H 7.31392 3.91094 -0.22777
H 11.02978 4.59138 -3.178
H 8.01007 4.51664 -2.79865
H 10.22715 3.5617 -0.96621
H 2.97458 1.45 1.70799
H 3.4576 1.95634 3.33038
H -0.29904 11.14612 1.41206
H 1.15431 10.65466 2.27164
H 5.62499 4.99995 -2.32787
H 4.03495 5.50039 -2.87389
H 0.80088 2.08171 2.0275
H 1.16904 2.28784 3.74295
H 1.84966 11.94292 0.35688
H 0.81571 11.02309 -0.73039
H 5.72388 7.33722 -3.04598
H 5.97222 7.25545 -1.30535
H 4.23584 3.29407 1.05437
H 4.10124 4.08136 2.62814
H -0.58716 8.90601 0.46633
H -0.34412 8.78533 2.20927
H 5.00782 4.85178 -0.12779
H 3.47812 4.47309 -0.93399
H 2.80107 10.4876 -2.2061
H 3.84031 11.41051 -1.11944
H 5.19137 9.38373 -0.64091
H 5.19546 9.80363 -2.35082
H -0.42867 4.23371 1.37769
H -0.68027 4.43355 3.11315
H 0.41958 6.62037 3.09312
H -0.87963 6.57938 1.90057
H 1.76919 4.57608 3.47576
H 3.26361 9.95567 0.7679
H 3.5256 8.13764 -2.86531
H 1.91473 3.94651 0.47701
H 2.06703 8.33068 1.84293
H 0.67396 6.29402 0.07638
H 4.34321 6.91517 0.62325
H 1.22726 8.64155 -1.05635
H 2.29711 6.86932 -1.55721
H 2.94159 6.27817 2.13052
H -2.08935 1.73698 1.24825
H -2.14257 2.75565 -0.17922
H -3.57476 1.14064 -1.36575
H -4.27433 1.69837 0.14374
H -0.04583 1.6461 -0.14348
H -0.94724 1.00652 -1.50641
H -2.14691 -3.93271 -1.61906
H -2.33255 -4.66364 -0.01053
H -4.74912 -0.555 0.16974
H -3.37382 -0.45312 1.25428
H -0.91628 -0.40636 1.21892
H 0.39586 -0.59299 0.07357
H -3.74966 -2.87355 0.74623
H -4.31801 -3.11656 -0.91171
H -0.13735 -3.23075 -0.41287
H -1.08453 -2.85113 1.03795
H -3.25505 -1.20954 -1.71308
H -1.06938 -1.4449 -1.65369
