760
Atoms. Timestep: 0
C 47.8778 19.1439 13.3425
C 51.8742 30.8493 27.9223
C 51.9014 19.4219 18.7956
H 52.1551 20.2465 23.1634
C 66.6711 22.5195 26.3504
C 57.4376 23.7081 19.7505
C 54.4757 30.9724 13.4977
C 66.0306 16.9505 1.13558
C 61.2071 14.3737 20.9847
C 60.5157 15.529 26.6737
C 67.8569 22.3898 19.2074
C 55.48 36.1204 14.0054
H 65.5805 19.7533 8.2868
C 60.8553 15.2988 20.1269
C 58.7111 22.9827 14.7168
C 55.8401 17.5908 19.13
C 57.6294 28.4431 12.3102
C 53.3254 29.6489 22.3796
H 51.3414 15.6677 24.3559
C 54.1464 27.8371 13.7713
H 68.9416 16.016 17.2426
C 51.4708 34.8108 14.0714
C 57.8029 26.1924 16.3344
C 49.8586 32.9748 11.4249
C 59.9778 16.53 27.5577
C 55.5564 20.9316 20.0309
C 53.929 25.4235 18.9568
C 42.8593 36.436 39.4044
H 60.4584 23.4302 11.0008
H 64.2178 13.4809 6.28853
C 58.7164 20.0344 21.8826
C 46.8251 21.3584 13.4485
H 49.5824 21.0135 18.9125
H 58.7347 25.6556 22.7384
H 49.5223 29.6558 22.958
C 51.9668 24.0057 36.8993
C 59.1952 24.8445 12.3204
H 69.7609 28.6631 15.8478
C 61.2341 28.536 13.9603
C 54.7665 25.563 33.9056
C 64.4237 18.7702 17.7309
C 54.2197 24.7719 23.7963
C 53.9153 28.0775 17.8768
C 71.6509 20.3598 22.3235
H 57.3119 26.8129 22.2599
C 54.4208 28.6597 14.8108
C 51.6375 14.0008 19.4374
C 66.8812 22.5089 13.1105
H 57.0007 21.5441 12.9119
C 50.8893 23.2215 8.6827
C 61.084 20.5908 12.6791
C 65.9652 26.0271 27.3945
H 60.071 13.8458 15.9114
C 67.7566 32.5677 27.4066
C 51.0245 14.6338 18.3542
C 59.5615 15.1516 25.8604
C 62.6937 20.3643 21.9663
C 48.5506 21.4166 15.0428
C 58.5553 19.9499 12.1667
C 61.8496 18.1153 13.5874
H 49.2882 34.8518 48.4267
C 68.863 23.358 19.7371
C 52.2493 28.0757 11.7607
H 61.9517 29.651 20.9105
H 49.4498 19.1565 18.6327
C 71.118 26.7681 15.8222
C 67.6553 16.8935 -3.1649
C 61.955 27.6523 21.4539
C 55.6087 21.0211 22.4499
C 72.0779 23.0472 13.7859
C 50.584 28.8626 15.4361
C 53.0315 32.2542 24.8077
C 66.5452 21.9982 17.082
C 51.2748 35.2362 11.361
C 66.5463 23.7853 26.5729
C 56.3539 24.6472 19.1027
H 51.7269 32.7454 26.7268
C 61.3013 21.7762 14.7721
C 65.0999 27.2484 27.5551
C 48.6382 18.2196 13.8974
C 62.5745 16.0635 7.43235
C 61.111 26.3208 26.9432
H 46.6752 19.9693 22.676
C 59.8316 18.1205 7.8562
C 63.2487 21.4454 13.0934
C 52.6677 26.9872 30.3134
C 49.2748 17.4619 14.6084
H 52.2968 28.1979 10.619
C 65.114 26.5832 22.3668
C 65.5331 17.0609 26.7783
H 56.6983 18.3564 30.0704
C 60.2166 21.8284 23.6407
H 54.8751 17.1649 21.7838
C 55.9595 18.7452 24.7963
H 48.7483 34.7627 15.975
H 43.8304 35.2096 46.3625
C 48.4821 36.2462 35.2001
H 58.4859 22.3029 5.99626
H -2.90033 98.7857 -45.8204
C 56.7841 19.3199 16.9453
C 51.3165 23.6548 34.3338
H 63.5329 35.6265 22.2957
C 63.9376 34.7103 22.9359
C -2.50945 98.7091 -48.0268
C 54.2194 23.0576 19.2991
C 65.8272 20.8873 17.738
C 54.0116 30.1334 14.7675
H 49.6573 25.7349 38.7562
C 64.0731 26.0826 21.3281
C 47.4389 35.22 47.4382
H 52.2122 17.416 24.4246
C 64.2504 17.4803 20.1139
H 75.4185 22.7593 19.1132
C 47.8991 22.1916 13.8543
C 67.6105 24.5414 14.5091
H 45.5452 19.9943 19.387
C 57.2039 24.0632 9.70199
H 53.0225 31.4037 18.9267
H 69.9698 23.5711 18.3701
C 61.195 20.4376 25.3451
C 61.8511 25.0897 21.2651
C 51.3413 32.0121 21.5714
C 55.4254 22.0985 19.444
C 58.3381 18.1002 19.1255
H 48.3376 23.959 12.8025
H 47.551 33.7979 42.4208
C 57.5695 28.7776 20.8808
C 44.542 36.7204 36.0004
C 61.343 28.8619 21.521
C 56.4553 24.9797 10.5582
C 57.2595 24.1161 23.9969
C 64.5939 24.8183 20.8571
C 50.6936 24.4961 37.2555
H 54.9754 28.3514 15.6768
H 57.7905 16.4312 13.6878
C 69.247 23.9387 22.286
H 57.9766 20.3545 14.1644
C -1.80746 98.6706 -49.1393
C 72.5718 29.1175 17.4995
C 59.0018 28.8348 12.8378
C 74.0311 26.962 22.8573
H 61.8696 13.463 20.6913
C 50.8792 19.9481 21.1977
C 64.0071 24.1556 19.7109
C 67.9781 25.6177 25.9138
C 69.2793 19.4214 22.9127
H 56.8369 24.047 14.4676
C 66.0004 15.7964 9.7654
H 70.0165 25.2668 26.7977
C 55.1298 26.5901 33.0237
C 61.2563 17.4184 16.0155
C 51.0234 20.823 15.0345
C 60.5555 16.7073 18.4255
C 50.9705 12.9537 22.2497
C 69.5325 18.8411 19.497
C 52.2136 18.0473 18.6831
C 67.6629 29.1217 26.8572
H 49.7708 23.8654 39.129
C 67.2493 30.5071 26.6547
C 58.6944 19.0412 18.2247
H 54.3842 30.0258 12.8051
C 62.6761 26.3476 21.43
C 56.8315 22.4495 19.0463
C 62.7113 34.0338 22.8678
C 61.5154 33.7854 22.8178
C 57.7971 15.1151 22.0329
H 56.3246 20.487 28.9059
H 62.8355 23.4146 22.0776
C 59.408 17.24 19.4603
C 60.3976 21.4944 13.7589
H 52.9552 37.2582 9.11105
C 53.6152 24.7783 33.5901
H 57.2017 29.0839 11.6389
C 52.0293 27.3725 16.2413
C 53.5929 29.4091 17.9447
C 54.8098 16.3605 17.5606
C 47.0676 20.0355 12.7498
C 64.0294 16.4691 19.1337
C 58.8426 19.3055 31.701
C 57.9958 20.9671 13.2671
C 59.5552 18.7178 27.8652
C 64.5683 18.1445 2.51895
C 71.1574 17.9652 25.2157
C 74.6264 24.5008 20.144
H 65.5155 19.4597 25.6898
C 61.7199 14.6024 17.8042
C 54.96 24.3636 15.3204
C 71.1107 18.7943 24.3409
H 51.1609 23.6926 16.4188
H 66.3941 21.188 9.91765
H 67.0173 12.823 11.1002
C 66.1437 22.1261 -9.58858
H 49.653 22.7612 12.8692
H 62.2224 16.3814 3.76771
H 64.4431 16.0973 28.0555
H 53.2689 29.0763 26.7221
C 56.6412 25.9815 18.6695
C 49.2399 17.9301 23.9088
H 63.4824 16.5188 13.7086
C 69.3508 19.407 20.5396
C 49.8531 23.5245 9.16786
C 71.0084 17.3062 26.5116
H 52.846 21.5371 19.8259
C 49.2943 17.393 25.2785
C 59.8672 24.0159 20.7093
C 66.4103 22.5374 15.7125
C 49.987 31.5309 15.586
H 51.9112 24.3897 20.4123
C 66.6497 17.2032 26.3321
C 58.1525 30.6667 23.9689
H 62.729 14.2425 15.2715
C 53.0449 22.6105 19.3833
H 62.8101 17.2471 5.42081
C 65.7147 24.6254 27.4933
C 50.9927 20.0173 19.7999
H 67.8219 33.6382 27.9545
C 66.38 21.3433 -8.57168
C 54.9398 24.3944 19.385
H 58.6524 27.4867 19.4938
C 71.0745 16.2738 27.4952
H 57.6635 14.2051 21.653
H 52.985 18.9509 16.1682
C 61.5912 19.5036 6.63373
C 58.2004 16.8008 14.7395
H 71.3404 20.3661 21.2756
C 48.6977 19.4823 20.6466
H 56.5812 20.6854 22.5965
H 62.0736 12.8498 16.9428
C 63.7612 19.3725 6.90742
C 54.4173 14.0907 23.0966
C 64.0193 15.2543 5.28416
C 58.4133 23.5208 10.2435
C 61.4326 21.5341 9.82939
C 53.11 21.783 9.14642
C 53.9099 16.296 18.675
C 54.2555 16.684 21.1196
C 53.3445 13.4322 22.6732
C 73.6477 28.0307 19.6622
H 66.7184 24.1795 21.1575
C 65.7843 23.939 21.3181
C 53.1041 26.0981 21.1172
C 59.1187 21.8085 25.892
C 58.9845 21.8114 13.8879
H 51.994 33.6171 21.4743
C 67.7107 16.7602 -4.61691
H 68.5503 25.9066 17.3129
C 61.1732 19.743 17.351
H 52.3093 35.7871 8.17961
C 51.8128 35.8288 10.1845
C 55.6731 27.4924 32.25
C 54.349 28.7083 26.6469
H -5.53672 98.8135 -47.6009
C 54.5964 30.1789 29.4726
C 53.1681 31.5872 16.8397
C 62.9573 17.4455 26.8054
C 59.3866 20.5714 6.96664
H 70.3243 23.1637 10.1669
C 67.3762 23.571 15.6893
C 52.0159 20.3104 22.028
C 52.1768 23.4131 16.413
C 63.3937 20.4062 5.90573
C 53.1125 24.9849 32.1728
C 63.8143 21.6807 15.4589
C 57.1723 22.6687 17.5944
H 55.3167 19.4721 15.4164
H 62.0883 21.0926 20.2277
H 66.6273 18.9473 20.3315
C 51.1273 27.6561 28.1817
H 74.2567 24.4075 22.2523
C 48.9074 23.3714 33.5189
C 73.7988 27.267 20.5622
H 47.947 35.0774 49.4557
C 56.9932 20.0052 28.3734
H 46.1673 34.8825 42.6612
H 55.1378 23.9621 26.0229
C 60.6688 23.083 21.3532
C 55.9853 31.2461 25.5223
C 56.6594 26.8392 19.8307
C 68.3496 25.7706 14.7896
H 57.0546 18.6988 20.784
C 67.6159 32.4561 25.9577
H 46.7019 14.8132 21.1134
H -2.25642 98.5923 99.8465
C 57.8023 30.2695 22.641
C 43.7264 34.2002 35.2209
C 62.2619 29.4723 26.4666
H 59.5399 14.252 25.1926
C 63.9009 17.6839 21.4516
C 54.9866 26.7464 24.7817
H 49.822 24.5954 36.7129
H 61.8224 29.6884 13.7769
C 52.1031 13.4462 20.4256
H 62.683 24.9598 26.5187
C 67.3354 21.2674 19.8644
H 71.46 29.1352 17.531
C 56.9898 31.0601 24.8296
H 64.1014 22.3438 9.32528
C 68.6336 22.5825 11.3219
C 54.6277 16.9655 19.7416
H 50.988 25.2323 39.4475
C 51.5573 15.8736 17.6542
C 61.5767 22.6972 29.1607
C 59.766 29.1002 26.7112
C 44.4636 34.961 45.454
C 66.4608 32.6359 25.0752
C 59.3438 26.7476 14.3102
H 54.1307 16.2029 16.4873
C 62.1251 17.4181 7.83536
C 42.5991 35.9864 40.7441
C 64.4304 28.2537 27.4089
H 63.9183 12.6253 10.8678
C 46.701 19.1217 21.9687
C 53.1315 27.1104 22.1189
C 62.9691 17.0744 4.39827
H 59.4524 29.529 12.3372
C 63.8763 15.7941 18.0925
C 43.6128 23.2262 13.4635
H 56.7812 27.3664 31.859
C 60.7445 17.2816 8.34176
C 52.0082 29.8302 22.8617
H 52.0073 32.604 24.4926
C 52.9723 33.4138 18.5311
C 51.4401 33.1721 20.6733
H 72.6336 19.8655 22.2283
C 64.9099 12.818 10.6783
C 50.7047 16.3895 16.5787
C 67.7663 21.0313 21.2708
C 57.4454 18.7817 29.2702
C 59.4029 31.4587 24.5222
H 51.0928 27.6963 12.0587
C 68.9537 26.7971 15.0341
H 72.9752 30.0443 19.5524
C 54.6872 27.6901 25.6991
C 50.3848 30.0467 15.5082
H 48.7501 32.884 11.7016
C 50.4692 34.433 14.6472
H 54.0203 19.5459 11.5863
C 52.6854 26.7156 23.4665
C 56.6681 23.139 16.3471
C 63.309 13.4864 2.44113
C 60.0389 33.6115 22.9289
C 53.4746 28.0782 30.7775
C 66.2078 14.6636 10.0015
C 51.3914 27.7101 26.7737
C 50.1181 31.6051 31.0074
H 64.5249 22.2123 27.1122
C 54.4464 20.6759 16.63
C 65.377 17.2379 9.88514
H 54.9616 33.5236 20.2767
C 53.3502 31.7406 25.9369
C 49.1984 13.6668 16.6041
C 55.2019 23.1739 16.0729
C 52.9551 22.0313 16.147
C 58.1486 22.4662 8.13764
C 55.3168 25.7317 23.9081
H 55.6526 30.9374 22.3577
C 59.9425 29.1772 21.6763
C 67.0043 31.3165 25.4476
H 53.8225 32.0704 24.2193
C 62.0887 20.0304 23.1477
C 56.8999 24.7542 26.5689
C 67.725 17.2685 -2.03623
C 65.7402 33.5259 24.3593
H 60.3033 26.408 21.3473
C 70.7225 19.5297 23.1896
C 53.9349 34.9132 15.6089
C 62.0441 27.6238 14.7154
H 56.4301 20.8307 15.4865
C 69.7094 24.4763 23.5413
C 45.8009 34.4608 45.4564
C 61.8242 23.7784 21.6607
H 59.5577 19.5582 32.2346
H 68.3136 15.9597 -4.89631
H 56.4072 20.1599 20.0666
C 62.8211 17.1804 13.0376
H 63.5316 18.2093 17.5954
H 62.9792 16.9082 24.4578
C 59.4257 23.8876 11.2865
C 47.2032 21.806 33.7538
C 63.6639 17.2919 11.9194
C 49.5498 32.5273 31.9151
C 71.7539 21.842 13.1236
C 63.7323 23.9184 18.6092
C 63.8839 14.3875 6.31155
C 56.7068 25.308 23.5433
C 53.006 23.6088 7.50696
C 63.1378 14.9044 17.2731
C 65.5757 22.0989 13.6431
C 63.882 21.9419 10.3316
C 58.8414 22.3642 9.41885
H 73.7363 27.9625 22.7026
C 70.8356 22.1483 12.117
C 66.1421 13.2461 10.573
C 58.5918 21.7436 6.94909
H 64.7189 18.8338 1.69175
C 59.8331 26.0681 27.4255
H 50.6483 32.1707 11.3092
C 74.0696 26.3253 21.7596
C 60.8215 29.9203 26.0915
H 54.5249 30.941 23.2411
C 49.1417 15.756 28.6586
C 66.5347 19.9244 25.5272
C 60.1684 20.9548 26.2853
C 70.2212 16.2245 26.6665
C 53.5105 20.8509 9.83448
H 74.0534 26.4474 23.7019
C 53.8947 28.3575 21.8948
H 67.23 16.973 -6.52521
C 63.5464 18.2358 3.54592
C 63.3234 29.1013 26.9515
H 57.6632 16.1447 28.1232
H 61.3893 14.888 26.5101
C 50.0747 23.4608 33.749
C 70.0086 22.7248 11.0647
C 50.6995 30.8353 30.249
H 60.3606 25.906 19.5321
C 64.6617 15.6452 2.98818
C 66.2829 18.6962 -5.44099
C 51.8192 16.4759 23.7967
H 67.9467 24.5449 12.583
C 54.751 26.3998 13.6803
C 59.6263 32.5308 23.7381
C -3.36701 98.7824 -46.8022
C 59.9771 18.8519 17.5941
C 68.0149 23.8069 16.9841
C 62.0419 23.2825 16.6748
H 58.4036 20.2744 11.1002
C 49.9285 13.9688 17.8581
C 43.0405 22.1742 13.4474
C 61.9549 19.2239 25.5657
H 60.564 16.4986 9.09629
C 66.1767 14.4161 15.3126
C 54.2898 22.0884 16.5403
C 68.579 24.9793 17.6143
H 71.5299 21.5006 22.7976
C 58.3699 18.8944 22.087
H 55.6782 32.8221 27.5857
C 56.1177 23.6738 26.5102
C 57.4207 18.417 8.80215
C 54.9008 25.3896 14.6442
C 51.258 30.1811 29.0197
C 64.5129 17.2188 10.9913
H 55.506 25.4618 6.12308
C 66.3664 25.1724 24.2897
C 46.5074 20.202 19.6225
C 52.0286 23.479 35.5684
C 52.3693 36.2399 9.10302
C 59.8948 28.0748 13.6906
C 62.2742 21.155 12.0292
C 62.4977 19.0818 24.2589
H 72.744 29.821 16.6812
C 43.8504 35.268 44.2244
C 55.8356 17.385 17.7439
C 56.4011 30.2202 22.3547
C 54.4602 35.9755 13.0107
H 46.6759 23.5781 32.8465
C 52.2019 24.8759 21.2434
H 48.8646 23.8623 9.15499
C 51.1092 22.4907 25.5443
C 53.2709 19.969 16.11
H 46.7425 19.6669 34.1274
C 60.085 21.9189 22.1921
C 52.6578 24.4979 17.0964
C 52.8335 33.505 19.8502
C 69.0379 23.6327 21.1109
C 52.441 16.213 22.6204
H 45.3926 22.5188 14.5042
C 53.1343 35.7 13.1971
C 69.3209 25.2853 25.953
C 69.1437 17.6733 18.691
H 67.3299 21.3778 22.1893
H 66.5142 14.6984 14.2888
H 66.1896 22.9281 9.8992
C 66.2863 22.0137 10.6226
H 52.7437 23.761 37.5727
C 44.3524 22.0753 12.918
C 65.7051 25.8337 23.3132
C 57.6137 20.0386 17.8546
C 58.5283 18.1718 8.39716
C 46.6165 34.8453 46.6485
C 56.114 23.8194 7.54462
C 48.4102 35.3507 48.6457
H 47.248 18.4524 22.3701
C 51.9072 27.6614 24.2396
C 62.7209 23.5571 17.6391
C 57.6135 21.4797 18.1549
H 65.5363 23.0355 -9.51068
C 58.6195 16.5423 28.4799
C 68.0525 17.5414 -0.746137
C 60.474 23.6895 28.7362
C 48.5949 14.2648 17.434
C 67.2993 26.5104 26.9482
C 67.1688 17.5171 -5.61948
H 55.0964 36.2823 16.3139
C 49.6611 19.1984 21.6365
H 54.5584 36.275 12.0224
C 49.2031 15.6739 27.2069
C 64.9735 14.5308 15.6759
C 65.0124 16.781 2.26189
H 65.5542 24.0716 22.3699
C 67.8947 17.7636 25.8057
H 62.3582 26.73 25.6651
C 62.57 26.8909 15.5598
H 45.7237 18.9586 21.6943
C 73.4854 29.3579 18.845
C 58.7448 26.3136 15.2691
H 54.0466 31.8897 13.1548
C 67.4456 22.7734 17.8714
C 49.3798 34.1544 15.3907
C 53.0539 15.9523 21.487
C 49.7584 13.0555 22.6422
H 65.9558 18.7308 -4.42208
C 62.8051 14.7342 7.2718
C 53.9261 31.0293 22.3471
H 50.6378 26.7118 14.6008
H 57.9863 19.0919 12.3378
C 51.1732 23.2862 22.8202
C 59.0504 22.2481 24.4264
H -0.745041 98.6914 -49.1279
H 56.619 19.8524 27.3881
C 67.658 27.9 26.9115
C 57.0246 17.8847 19.8775
C 56.376 18.9387 9.59224
C 58.1676 17.4699 22.252
H 49.0911 36.3214 36.1085
C 57.4628 17.2322 15.6602
H 64.1556 20.6978 20.3305
C 59.1382 25.5885 13.3695
C 49.8613 28.9294 23.6545
C 63.0591 20.8791 20.7732
H 59.3861 23.216 28.77
H 49.5711 12.8877 23.7547
C 55.4045 26.9586 20.4671
C 52.2421 31.7488 26.9499
C 54.7594 31.3404 26.265
C 61.3911 15.581 18.7131
H 59.0098 16.2846 15.0487
H 47.1737 33.1801 45.2641
H 54.8631 27.8272 18.4855
C 63.606 20.6846 16.4816
C 65.2471 21.9858 15.0421
C 55.6552 19.755 25.6328
H 67.6576 30.7531 28.8128
C 53.135 27.956 12.7349
C 53.0649 25.6819 17.7978
C 55.396 19.4107 10.1743
C 52.9274 25.2994 23.526
C 56.8623 17.8322 16.8465
C 60.8509 18.9664 12.883
C 51.1963 31.0256 22.4202
H 51.9625 20.1704 18.0593
C 73.7818 24.4473 16.82
C 43.9038 35.5107 36.094
H 66.4024 21.5937 -10.59
C 49.5291 19.9603 19.3839
C 72.8933 24.7856 15.6917
C 53.3704 20.3823 21.6052
C 53.0804 20.7388 25.8271
C 46.8404 34.2414 43.1639
C 57.9435 21.764 26.7422
C 51.2764 28.8107 23.5713
H 50.6563 33.6229 20.444
H 62.5156 13.9883 7.92589
H 50.5895 31.3332 23.2707
C 48.5771 34.1609 33.6822
H 61.4734 22.0538 29.958
C 43.6283 32.8986 35.0019
C 57.7958 27.7225 19.9805
C 63.0277 17.8646 23.8748
C 52.9748 27.0205 17.1986
C 53.2934 30.7864 18.0379
H 47.5293 22.1653 19.6066
C 72.0003 25.9169 15.6143
C 55.1092 35.6791 15.259
H 48.7852 36.447 48.7402
H 59.6466 24.4339 16.2141
C 64.1917 16.1197 4.30755
C 49.1951 16.7129 26.2811
H 54.8885 28.8206 27.5071
C 54.7169 20.6939 21.2732
C -4.72846 98.8133 -46.9399
C 55.1307 31.9288 27.545
H 58.5636 16.4843 29.5783
C 49.9128 21.2834 14.8847
H 56.3744 36.8823 13.7352
H 55.511 31.1805 13.5658
H 65.1694 27.54 22.3744
C 59.858 13.1466 16.6982
C 56.6865 15.5716 22.9282
C 52.71 23.9885 34.3827
C 52.0772 24.4004 22.5687
H 55.3476 25.4877 34.7527
C 50.8486 22.9562 24.2026
C 60.3362 31.1618 25.6041
H 74.4896 29.4114 18.2519
C 65.9941 19.8565 -6.22156
H 66.703 13.6463 15.7026
C 69.0343 16.7678 17.9382
C 47.3029 21.2705 18.9463
C 60.1539 21.9016 9.56072
C 64.6305 20.1425 17.2488
H 59.0623 13.4053 17.3109
C 54.125 32.079 21.4955
C 53.0223 33.0355 17.1774
C 55.1514 22.1716 23.0187
C 54.4685 20.5857 26.1146
C 58.5719 16.2556 21.5334
C 58.4807 17.9739 28.6117
C 47.7173 21.4254 17.6616
C 54.1026 33.2024 20.6418
H 52.208 25.0058 30.2601
C 57.7722 25.781 26.6911
C 48.1335 21.3798 16.3975
C 55.5153 14.7918 23.1264
C 56.5064 22.2858 26.5956
C 63.5432 14.584 15.9641
C 60.4977 25.5389 20.7235
C 59.635 16.23 20.4842
H 68.0979 23.9682 24.8505
C 62.5635 21.5144 10.6664
C 59.7661 23.578 15.533
H 61.2263 12.8327 18.622
C 66.3961 20.4939 19.0163
H 61.6049 21.3598 5.07845
H 53.3414 25.3332 6.27374
C 46.9931 20.6539 34.0213
H 72.7303 28.0857 17.2744
C 62.332 20.2807 16.8716
H 68.3601 18.4603 -0.279075
C 56.7337 27.5702 12.5517
C 53.2676 34.1593 16.2658
C 49.7071 32.7137 15.6485
H 59.7844 12.233 16.2484
H 60.729 14.2079 21.9673
C 52.3743 22.8093 8.28649
C 72.5754 23.8206 14.5648
C 50.4351 34.0815 11.3787
H 52.4041 15.4477 20.9601
C 54.2522 20.0063 10.7539
H 58.492 22.0682 20.8598
H 68.7923 17.0054 25.7411
C 43.4341 36.4934 36.9446
C 49.4541 18.5655 22.8868
C 61.9777 20.4614 5.64049
C 57.0723 16.9957 23.2001
C 53.6692 30.8504 15.7864
C 69.5342 24.3954 18.6477
C 47.3347 19.5632 20.5696
C 67.3455 22.3104 11.7367
C 58.7011 26.7786 26.8231
C 69.9376 27.5147 15.7471
C 64.2674 13.0968 3.03727
C 56.2794 28.9467 21.6487
C 67.1879 24.4381 25.2583
C 47.6167 14.4457 21.5434
C 66.363 20.6537 -7.44064
C 60.1582 19.4585 7.10863
H 46.8043 20.0948 11.594
C 57.0893 23.4536 8.35085
C 66.9575 17.1419 0.214124
C 60.4968 17.8696 27.2624
H 65.5903 22.8327 21.0981
C 48.3843 35.1357 34.4007
H 60.8751 32.109 25.4063
H 58.6662 15.5542 26.1777
C 57.9948 23.1938 24.1578
C 58.2023 19.2138 30.7729
C 43.3275 35.343 43.1686
H 52.3439 23.3698 19.1782
C 54.5309 28.8166 30.0869
C 55.9626 25.6367 11.4479
H 69.8372 24.9339 19.6583
C 43.3476 36.6135 38.3331
C 62.7285 22.7303 28.4559
C 62.5285 18.6122 7.30721
C 48.1186 15.5172 28.2159
H 59.4814 33.8578 21.9935
C 54.566 23.3922 23.2949
C 67.5999 31.3181 27.8088
C 64.9092 21.6544 11.217
C 49.9824 16.8332 15.6793
C 63.9108 22.9477 27.7133
H 49.28 28.029 23.8375
C 51.7427 27.7169 25.6072
C 51.0652 27.5102 15.3463
H 50.4466 22.3901 26.4291
C 59.4634 20.0663 27.2421
C 66.0856 19.2719 19.6306
C 63.5339 17.6482 22.5548
C 54.8333 31.0982 28.7173
C 42.6112 33.4841 34.9313
C 64.5685 21.794 12.6004
C 60.436 24.8348 27.9729
C 61.2362 13.22 17.5298
C 55.6827 26.5856 12.6522
C 58.6469 23.7759 20.1068
C 74.9737 23.6294 19.1164
C 61.6407 17.774 14.9433
H 72.2283 20.8299 13.3668
C 51.3848 28.7545 29.037
C 67.5849 18.954 24.977
C 52.0956 21.3562 25.7579
C 54.8807 27.9176 31.021
C 47.1469 36.5457 35.6307
C 54.2013 26.2869 20.0989
C 55.2367 24.5044 6.66965
H 62.8928 19.1118 3.77728
C 64.0887 16.7806 27.1688
C 68.4953 19.0863 24.0192
C 56.5663 17.9471 24.0465
C 55.1814 28.0813 21.4412
C 66.6891 21.1547 26.0776
C 65.1059 17.9766 8.73427
C 46.8147 33.9017 44.4752
C 64.7509 19.2265 7.92238
C 62.6894 21.6279 14.451
C 61.834 18.2144 26.6189
C 47.4873 23.1776 33.4877
C 51.9203 35.2469 12.8377
C 55.7233 21.1819 25.9857
C 58.2398 20.6948 27.6401
C 45.6027 21.9478 13.6331
C 52.2996 13.059 21.7647
C 60.8347 17.5936 17.3927
C 58.9194 28.2602 26.7858
C 57.1603 26.1629 17.3348
H 63.0135 26.4415 16.3889
C 48.6754 23.0258 12.9789
C 52.4325 16.6734 18.5099
C 64.8949 18.5428 19.0767
C 64.4548 24.2493 27.9173
C 48.5133 13.8019 21.9992
C 51.5474 27.4685 29.5673
H 50.7962 22.6243 22.2122
C 42.8894 35.6738 41.8885
C 45.9375 36.5882 35.797
C 64.5361 14.2811 2.43243
C 59.9845 19.5465 12.2114
C 64.96 34.1695 23.7402
C 52.7565 25.5392 30.9437
H 63.8579 24.976 28.1795
C 58.6554 29.4875 21.7141
C 55.8842 20.1116 16.0436
C 67.2989 23.8868 13.3273
C 74.4018 25.0339 21.3965
C 69.6633 24.8748 24.6906
H 58.2137 26.9226 23.8579
C 57.759 26.1922 23.0112
C 61.0591 22.9247 15.6754
C 62.1563 25.9208 26.3613
C 52.3591 20.856 15.4777
C 68.8654 20.2085 21.5701
C 61.2633 20.9194 23.993
C 53.76 24.3984 6.63237
C 57.4598 23.5481 15.1979
C 49.1101 33.2384 32.8057
C 50.2321 24.7111 38.6954
C 58.9107 21.3976 21.6096
H 64.3026 21.0623 5.60484
C 74.4271 24.1406 17.8118
