1769
Atoms. Timestep: 1200000
1	12.1342	42.6754	19.5239
1	19.5347	37.6531	23.1476
2	21.7659	40.528	11.4136
1	-5.12245	27.1507	15.7726
1	0.862541	34.9112	21.5347
1	4.85142	29.7637	16.114
2	9.9792	41.7605	13.1384
1	17.2162	36.1268	26.5872
1	-3.79001	29.5339	11.6456
1	17.2063	18.4701	18.0175
1	23.267	29.3905	18.3372
1	10.9298	32.5957	28.2519
1	17.5571	27.2468	9.9228
2	10.8775	41.3086	36.0137
2	5.70672	30.1136	7.90857
1	8.89308	26.9909	16.0547
2	22.1418	28.2226	24.6403
1	5.56929	32.4434	13.6657
2	17.7098	22.4845	33.8463
2	24.905	23.7307	20.6733
1	1.76895	31.1786	11.2396
2	10.0506	32.4246	26.411
1	5.22459	20.5941	12.1825
1	-2.13853	35.6546	18.3592
1	0.255387	21.6128	12.8203
2	13.606	48.9246	-0.001638
1	11.6011	38.7607	28.1038
2	14.4438	35.3866	5.23801
1	9.82785	31.7385	17.6045
2	10.5646	22.2227	7.19022
1	6.77435	29.6372	21.0858
2	19.9024	35.2525	24.7463
1	13.906	47.1898	1.03808
2	0.167116	33.165	24.5295
1	10.3166	23.5176	25.6701
1	18.3787	41.6596	16.4217
1	18.7456	28.571	5.89847
1	22.2844	29.9229	17.5514
1	17.5477	18.3284	16.5734
2	12.3589	50.8003	23.9502
1	5.11032	22.2921	8.21724
1	17.9156	38.6722	18.3192
1	10.2054	41.6913	3.95152
1	17.7795	37.139	11.4901
1	13.4901	33.8284	21.0137
1	14.2132	38.7258	17.2902
1	20.784	40.6736	16.7183
1	5.80393	26.9484	22.0712
1	14.7897	44.6529	9.84703
1	1.79019	32.8745	20.4326
1	-0.689611	31.8531	15.8823
2	21.0252	39.1063	22.8606
1	6.48464	28.6314	23.9647
1	7.5173	32.4167	24.2022
2	22.6587	36.6034	9.11618
1	9.50731	40.1343	27.8881
1	7.38882	30.0864	19.8981
1	12.7274	27.1695	19.5195
1	5.86529	17.9938	12.2319
1	-6.60349	31.9092	10.7068
1	11.0388	31.3184	7.8037
2	8.53868	31.8825	34.2807
1	12.1028	48.0347	11.5024
1	5.43107	36.1846	38.4678
1	14.5367	24.3868	23.2473
1	0.505197	36.8464	13.0046
2	5.51741	30.3793	15.4996
1	-7.18427	38.3238	12.4064
2	14.4009	30.6437	13.9271
1	8.2108	32.3645	33.5101
1	8.01197	42.1409	21.958
2	-0.772002	17.0326	11.8842
1	18.6752	27.8916	7.12435
1	9.61963	28.0102	15.7153
1	3.12556	49.7277	25.841
1	10.6202	34.5752	15.4626
2	8.34588	26.3252	3.50333
1	10.5476	39.3662	11.4326
2	12.2119	36.5508	14.0048
1	6.63605	33.2012	19.189
2	20.7791	23.2061	15.9468
1	22.8287	25.3417	24.4169
1	7.96658	21.1736	13.6443
1	11.9726	30.3359	8.1734
1	-7.95034	38.1957	11.1715
2	15.7334	28.7886	39.9538
2	12.9025	28.2587	22.2889
1	10.0699	34.3084	31.1676
2	3.66956	45.4776	14.9486
1	9.22453	34.7621	36.7087
1	13.9136	34.6246	14.2942
2	4.42259	23.4256	19.192
1	7.96876	41.9653	24.5825
2	9.26108	40.9508	9.24606
2	-2.30807	32.8527	23.1816
1	-1.53491	28.3639	11.0802
1	11.0162	20.4357	15.8204
2	24.3523	17.6461	18.1677
1	8.59701	35.8637	36.1393
2	10.9629	39.8349	16.2236
1	10.9001	20.6956	26.3352
2	-3.12118	25.5589	4.8358
1	4.1146	38.8789	17.1799
2	18.3535	52.7757	17.9538
2	-3.61138	32.5748	21.625
1	11.4239	47.2411	12.6257
1	-2.64952	35.1546	11.8482
1	11.1264	28.4988	21.1156
2	-1.12596	33.9155	22.3893
1	7.32394	20.9669	19.0608
1	17.3118	23.5999	14.3101
1	14.4204	39.8757	26.0049
1	11.907	30.9272	41.7395
2	22.1914	23.5865	15.7352
1	6.75028	16.8167	12.4644
1	11.1225	22.6092	27.9191
1	9.99442	20.988	15.1723
2	11.1674	48.1543	-1.68026
2	-3.2663	23.2527	19.6875
1	0.796697	30.9947	12.4022
2	7.58831	29.6182	18.0305
1	18.9374	41.9414	20.7028
1	3.20838	36.3967	16.2463
1	0.530972	39.2004	20.2873
1	12.8376	26.8788	11.9364
2	19.9733	37.2917	24.1428
2	6.9133	34.0334	7.75994
1	6.69741	32.8551	12.7764
1	-0.167328	33.2665	25.5926
1	-5.6878	29.6288	8.48274
2	-7.18486	35.4661	18.2166
1	9.224	19.5457	20.0497
1	15.0836	26.0051	19.5789
2	13.9341	37.9521	22.6078
1	13.1971	17.393	15.6997
1	8.58825	30.0657	31.7386
1	14.1416	28.018	24.5484
1	14.8168	26.4717	10.4837
1	15.454	20.3399	27.4887
1	0.874694	36.3883	9.91487
1	13.3754	42.0371	9.62051
1	18.9688	22.9829	11.6545
1	8.72465	47.1644	26.3797
2	-1.12689	39.773	12.815
2	7.28155	40.4825	0.558331
1	15.1169	37.2302	14.3215
1	17.7769	31.1683	14.7024
2	7.10297	28.8506	35.412
1	0.664079	39.0422	12.1535
2	4.51825	36.8295	30.1331
1	4.3455	39.0786	23.7001
2	7.82945	36.8463	8.62211
1	15.3597	50.1153	20.3652
1	10.1696	20.007	25.3519
1	15.7664	33.293	24.3084
1	4.32568	32.2687	26.1858
2	20.4008	32.4015	29.9207
1	18.3594	32.8968	22.8135
2	11.195	28.3844	18.9293
1	-5.47634	25.7605	16.2609
1	13.174	43.9352	2.49209
1	23.6552	27.6074	20.2035
2	-4.74777	37.2049	29.2508
1	16.0232	32.3559	32.2501
1	2.93275	38.3596	23.2725
2	10.8998	26.7656	42.8677
1	8.24944	27.5139	27.3166
2	8.91773	28.2356	11.6772
2	10.7977	42.3435	9.30247
1	7.27868	41.9526	5.65135
1	21.6749	24.1678	17.8085
2	8.85768	42.5217	-0.660249
2	11.7031	43.1575	23.8179
1	2.29186	37.5811	24.1429
1	0.237355	35.3971	18.0587
1	3.86719	34.6373	30.7206
1	8.9359	28.7317	9.64334
1	8.73717	35.7334	14.5081
1	13.7796	36.3547	29.6717
1	20.9246	24.1042	21.7265
2	1.32092	17.4735	15.7587
2	21.5469	27.1266	22.7856
1	5.21016	36.6865	30.8562
1	3.33129	34.8299	21.0584
1	-2.02864	27.1755	10.4536
1	10.7798	42.0975	19.1873
2	15.0575	19.2835	20.4855
1	19.2729	39.65	21.5908
2	-0.451505	34.3105	11.4077
2	11.8486	13.697	19.9974
1	4.80416	30.621	7.6703
1	-1.9367	36.3071	15.7285
1	11.9236	24.407	17.9548
2	12.0619	23.3874	3.97588
1	-1.1783	24.1431	9.83697
1	-9.71872	39.8473	14.3163
1	17.9276	27.9971	12.391
1	7.22304	33.1695	16.8378
2	6.92708	40.6544	21.0062
2	-5.81638	28.5413	17.3541
1	1.18269	37.7416	12.0887
1	3.18733	38.1722	17.9094
1	14.4636	33.7849	24.2851
1	15.6413	31.1699	22.8414
1	13.4666	26.6536	10.5341
1	12.2436	44.0512	19.8961
1	1.22699	24.3595	16.6484
1	8.14583	13.0736	12.8976
1	2.86116	26.8292	7.86378
1	16.6502	19.509	27.3471
1	4.13318	24.2078	9.23875
1	9.39426	36.4746	39.0918
1	8.54605	23.6009	12.4743
1	13.2791	26.5547	32.4772
2	8.01528	49.1606	21.3716
1	10.3268	39.9606	30.8941
1	-5.76345	33.3722	10.9317
2	0.300652	37.7642	14.9705
1	0.626235	20.4698	11.9819
1	9.08105	27.6874	5.08889
1	15.5973	21.3838	22.7024
2	11.5701	9.37384	16.2586
1	15.4335	28.8052	22.378
1	2.91158	34.7629	14.1499
1	10.4429	40.6044	19.8127
1	8.84203	45.5305	19.924
2	7.74485	28.2051	28.0318
1	17.3168	27.9737	13.6872
1	-3.71627	34.8658	20.3534
1	6.56635	37.1858	30.8418
1	19.5052	33.5342	12.2546
2	15.8861	45.8334	2.03064
1	13.5796	35.5918	13.304
2	12.1045	38.3668	14.9508
1	13.9592	41.2165	25.7793
1	2.82291	36.8403	17.5115
2	19.8419	26.1555	8.31908
1	-3.54457	26.9709	10.8399
2	-1.22632	22.2002	8.62579
1	13.9807	38.1118	18.2988
1	-4.6921	34.1502	13.135
2	8.16319	22.6032	14.9267
1	4.84792	31.1266	31.2678
1	-1.05528	36.058	14.5762
1	13.5593	44.6553	19.8641
2	21.242	49.7747	17.8327
1	8.96081	23.3546	15.1377
2	9.39066	24.4036	24.0045
1	3.87699	32.8356	7.4805
1	7.87468	29.5723	32.9568
1	8.08606	33.9544	16.0226
1	18.5236	30.4126	18.5511
1	2.25269	33.6562	26.0719
1	-4.24745	25.9757	13.4439
2	21.4869	33.393	5.073
1	10.2033	38.8564	28.2113
1	9.76828	18.4777	20.344
1	17.0108	46.2052	15.2034
1	-2.34072	25.5747	6.58989
1	12.8343	40.4023	20.3742
1	3.04341	39.8986	21.2619
1	15.3157	28.8487	14.7894
1	9.09817	42.2148	30.4884
2	20.0518	30.8865	7.81002
1	4.73911	31.8681	6.89038
1	10.5866	44.9087	28.4096
1	11.7444	28.0904	19.8544
1	16.5384	48.8178	12.5183
2	20.1972	42.5819	18.887
1	-4.74928	36.5594	28.3581
1	18.845	32.1526	12.5638
1	18.1386	35.5264	23.4294
2	10.6766	28.8535	6.85389
1	6.80176	41.1248	24.4157
1	18.6429	26.7713	17.9736
1	-9.48189	37.7273	8.01232
2	8.49448	43.3108	15.7154
2	16.9853	27.1248	30.5612
1	-2.42113	32.5906	26.5224
1	11.7623	28.0657	14.7209
1	9.63093	38.7073	20.766
2	3.37198	35.0219	29.7936
1	-4.15184	40.1302	13.4391
1	19.2874	21.8386	23.1313
1	2.30303	19.4622	13.6179
1	8.53523	30.9076	19.6601
1	18.0451	17.6992	13.6885
2	12.9435	46.8485	-1.643
1	9.66641	28.9271	23.764
1	-6.63448	37.4563	13.4727
1	12.0177	43.7892	14.3408
1	19.0249	18.6423	16.4578
1	9.72005	42.8432	23.2451
2	23.2123	30.4543	15.6192
1	14.8688	32.1555	9.43108
1	10.2758	14.9468	15.589
1	10.2418	33.0016	11.989
1	-3.04119	32.623	20.7129
2	8.95905	19.893	12.162
2	6.178	40.2824	30.6925
1	-3.02008	31.0984	15.9496
2	1.65104	30.7076	20.4442
1	9.52314	33.7603	15.9369
2	16.9882	15.4857	15.2822
1	16.8457	20.901	22.5318
1	5.36991	21.7455	11.6815
1	16.1077	34.2792	17.2519
1	10.0248	35.2918	39.7536
1	13.6948	37.423	19.4783
2	10.1483	20.0576	24.13
1	6.41869	30.3318	9.86214
2	12.8715	35.5161	12.6063
1	9.14727	24.1202	13.8496
1	10.1143	36.5324	11.9407
2	15.328	30.4264	33.8436
1	-1.38114	25.1779	8.88006
1	13.9786	29.5601	40.7402
1	11.547	28.5452	32.2785
2	-0.52235	19.0343	14.1004
1	9.65274	37.6043	28.3047
1	25.8648	29.4894	17.3469
1	9.56841	28.2186	10.7976
1	9.14947	29.3235	22.4613
2	-8.12678	28.5852	10.1052
1	10.9935	34.0411	11.0626
1	19.7231	20.2994	21.0191
1	7.85973	48.7238	23.4319
1	14.7119	28.2209	15.9458
1	-0.079145	37.0761	14.3155
2	17.954	26.3949	22.2962
1	1.12508	38.334	21.2272
1	4.98271	31.0711	34.4381
2	17.1977	21.4821	32.2533
2	13.1899	34.4982	23.4076
1	16.735	45.9884	16.4166
2	14.1561	30.982	24.4892
1	12.1287	31.7796	20.3701
1	13.5811	24.6237	15.9014
2	17.3604	41.5038	16.4694
1	5.69675	44.0287	21.7009
2	-1.66985	25.6623	15.1181
1	3.83295	24.4668	7.96423
1	9.30967	38.7158	11.1507
2	5.06608	43.875	18.8642
1	15.2235	30.3768	14.6507
1	17.0777	27.4335	11.277
1	21.8381	33.9831	12.141
1	9.38069	9.87653	16.1122
2	10.6362	34.8569	23.4197
1	14.9183	34.0573	29.8498
2	11.5138	22.5662	18.7878
2	-4.08524	27.7409	10.7592
1	15.3881	35.7213	5.53103
1	6.47762	44.4051	17.2275
2	11.5461	46.9417	28.4894
1	9.48986	41.0335	31.3169
1	0.542548	31.753	13.6516
1	16.7989	35.7105	21.3806
2	25.7502	20.1676	28.2527
1	7.33556	38.7349	20.4551
1	8.39224	22.0734	12.5448
2	14.5033	27.1433	38.5402
1	16.7873	36.1854	18.7366
1	13.4764	45.4508	25.5034
1	20.794	31.475	5.44915
1	6.02155	21.9478	17.1999
1	13.3744	44.0224	14.9251
1	13.7698	23.3285	15.5501
1	11.3547	33.3471	41.1238
1	12.9875	27.425	14.3812
1	12.3466	32.9414	21.2305
1	13.35	42.738	8.3156
2	8.16255	32.0928	21.8493
1	8.31465	29.2971	8.62744
2	11.0129	22.4009	5.27831
1	10.1299	31.6088	15.0945
1	-2.70962	24.2361	12.3311
2	20.1845	36.1139	10.8496
1	10.1801	22.4166	15.336
1	11.4296	23.1105	15.1146
1	13.9941	36.9019	13.4839
1	-5.66154	35.2132	13.6484
2	10.4123	10.1793	17.6216
2	10.2429	33.1509	4.34758
1	13.1427	32.306	29.6956
2	8.00603	31.447	13.2287
1	14.5311	46.1627	26.26
1	16.4952	35.6209	17.4918
1	9.11246	15.8702	15.4794
1	8.90675	41.696	1.28472
1	21.2437	15.7219	14.4636
2	16.3628	38.133	17.1345
1	6.62793	39.6083	12.7908
1	11.4198	36.7988	32.6415
1	13.2601	43.2179	3.75105
2	2.83345	50.4585	26.404
1	16.424	32.8757	20.8707
1	-4.08581	37.445	17.9579
2	27.633	30.6541	17.1541
1	4.21718	28.8507	28.1704
1	1.76288	34.0317	9.44575
2	6.99388	27.7553	19.7952
1	2.00708	34.1846	21.0717
1	8.76291	32.6257	32.139
2	8.83675	36.095	35.1354
1	24.5703	27.8977	22.3227
2	6.0252	21.2039	6.78727
1	-3.87399	34.6301	25.2909
1	14.7411	42.2027	16.5631
2	-0.81993	34.0338	20.5104
1	4.44996	49.0229	22.7759
1	6.53713	38.5172	26.5359
2	-9.70857	38.454	7.24426
1	-3.05024	33.6111	19.7575
2	-6.5243	25.8414	16.7937
1	18.9066	34.8792	12.2175
1	7.23186	16.1315	13.6153
1	11.4595	32.6688	8.24674
1	14.7898	30.4701	23.7333
2	10.3926	36.0345	27.0072
1	10.302	37.7507	32.4404
1	14.5082	30.0145	8.46109
1	12.6527	25.0343	16.9849
1	12.6949	45.576	-0.078861
2	21.7985	19.9012	28.5017
1	15.3529	31.6096	30.0972
2	10.294	43.3635	22.3115
1	19.1457	30.8537	7.16741
1	24.2618	20.8694	25.2453
2	20.7457	29.4269	9.17312
1	16.5498	21.2185	14.0521
2	6.16171	50.3066	27.1241
1	18.1302	38.4986	15.2515
1	9.66311	34.1007	20.0378
1	22.3787	15.1085	15.1491
1	15.7926	51.3553	19.6487
1	-4.4886	30.8418	11.438
2	7.03979	36.137	18.7741
2	16.5366	24.6777	20.5734
1	13.1013	30.2318	41.2332
1	13.8361	26.5954	19.552
1	4.26455	45.3194	29.8795
1	14.6888	43.4062	24.8199
1	21.6844	39.1034	14.3478
2	-5.26596	27.6498	12.0272
1	9.48926	13.1964	13.6603
1	6.16472	40.7783	23.2081
2	10.3309	47.6549	12.4243
2	17.0814	29.8745	7.33279
1	10.7588	47.9828	24.8771
1	10.7873	33.819	7.88913
1	14.8365	35.4407	29.3428
1	5.85273	42.1931	17.5996
1	-4.22942	24.7515	18.3559
1	13.8633	32.7048	33.9565
1	9.86843	32.3256	16.2418
1	21.7543	14.8746	23.4749
1	-3.42382	34.1399	13.8879
1	21.7684	35.0503	12.9839
1	8.76701	41.3472	15.9779
1	13.5968	49.8009	25.2059
1	7.08804	38.9152	11.6746
2	10.2819	30.8973	42.762
1	-7.04903	28.5187	10.2544
2	18.402	32.4873	23.7977
1	26.6218	35.4617	13.4953
1	7.58556	34.8555	31.7156
1	15.8972	27.9701	13.7402
2	16.8542	40.639	12.6364
1	8.70737	28.9804	30.7647
1	5.84353	49.6657	26.3514
2	2.14291	42.1701	4.53723
1	9.99337	42.4779	0.982103
1	23.1433	22.2595	20.7109
1	10.478	34.4651	40.495
2	11.6321	47.8899	0.004032
1	-0.212988	18.5745	13.2406
2	15.9116	41.7418	25.2248
1	2.28422	32.531	11.1872
2	20.0865	39.887	12.0694
1	12.0136	39.6344	13.3369
2	-0.059161	36.915	10.0901
1	10.4975	35.883	6.43272
1	10.3726	31.6922	13.9378
1	4.04007	33.2417	30.8013
1	5.90552	18.4338	16.5268
1	7.95457	12.1336	15.7856
1	18.1065	29.1058	18.8182
1	3.38564	37.4861	20.8506
1	12.3779	14.1719	16.6698
1	17.715	21.403	24.8945
1	20.678	33.2458	11.5686
2	7.33837	43.297	27.8775
1	-0.144036	30.0041	12.1104
2	16.281	43.3693	23.3314
1	5.53226	24.9248	20.2533
2	14.8603	37.6793	10.1415
2	13.9936	14.8285	15.1194
2	23.0953	40.3277	13.5011
1	3.28324	44.8191	27.4103
1	7.64346	34.8603	14.9682
1	8.11392	15.1727	19.3028
1	15.4161	26.0218	9.13006
2	29.0917	22.6837	25.2881
1	13.5713	44.0187	25.5024
2	-1.88652	26.4027	18.627
1	19.4127	43.3612	14.6471
1	2.5147	35.2989	15.4629
2	16.9353	37.7753	24.7148
1	22.2794	15.496	24.8139
1	11.5111	44.5983	13.2664
2	19.3429	22.839	10.5748
1	6.62109	29.7068	18.615
2	7.32523	40.8992	2.31829
1	9.74083	41.1208	32.7543
1	15.5693	31.2019	31.4602
1	7.61437	32.7129	18.1697
2	7.56977	31.1783	8.20504
1	12.7204	18.9337	15.8154
2	13.5754	37.7108	12.8759
1	3.45423	41.5607	6.0952
1	14.9738	27.3007	12.7808
1	18.0154	26.6299	23.4583
2	12.3166	37.6694	16.8356
1	3.51147	31.8857	17.3114
2	5.55709	20.0745	17.7356
2	3.80721	36.3152	35.4978
1	20.1853	19.4466	18.6093
1	12.4478	35.3018	23.1167
2	19.2587	44.7484	21.204
1	6.95206	38.3264	17.284
2	22.2139	31.5012	15.9298
2	16.848	49.3756	21.9862
1	13.9352	51.5674	21.9138
2	2.28162	36.2639	18.0082
1	7.28724	17.8869	16.8045
1	14.1185	41.0951	12.5814
1	-4.36188	35.9595	19.5703
2	8.23041	36.3918	13.7045
1	1.8041	23.1458	15.7814
2	-6.88864	34.4881	8.50397
1	14.6261	28.7575	29.6131
2	4.67477	31.8071	13.3293
1	15.831	44.038	24.0085
1	5.35195	23.7818	19.6986
1	7.63849	36.1435	30.9683
1	18.8519	32.2783	6.89097
1	11.1163	43.3424	26.6212
2	7.18714	40.3493	18.9596
2	11.2889	23.7065	23.8455
1	11.2289	24.3963	29.5767
1	-5.69722	30.7282	10.7136
1	9.18766	28.6938	25.1266
2	27.9946	29.1585	17.0755
1	13.0598	28.2402	26.9269
2	14.8239	37.7568	11.8149
1	11.3275	31.0784	31.6573
1	17.382	52.418	18.2126
1	13.2748	40.2419	15.2742
1	12.4838	39.2647	14.6247
2	5.30173	13.5614	13.8872
1	13.1161	46.8526	20.8663
1	8.27353	26.0135	20.0778
1	10.9883	38.7157	21.1167
1	9.40732	26.8211	7.39413
1	-3.391	36.4605	18.7211
2	12.5297	26.106	17.4146
1	24.6676	29.3602	17.8087
2	7.646	41.4315	34.8256
1	14.9667	28.6716	17.3996
1	5.41783	39.2572	15.0353
1	5.81337	38.8193	13.7331
1	7.87944	40.9093	1.39463
1	4.14258	33.1736	19.671
1	12.3273	33.4966	10.6064
1	11.6953	15.5693	20.1552
1	14.733	33.3241	20.4082
2	-6.35472	33.8799	16.9051
1	1.41679	36.7165	25.0119
2	25.3899	29.1689	20.5433
1	15.5736	39.9519	23.8077
1	5.01087	42.7725	18.7212
1	16.3817	33.9795	19.8649
1	9.82171	40.0207	6.02818
1	4.91111	35.9906	37.3411
1	2.72939	33.3263	13.5926
2	7.02177	14.8162	19.1792
2	3.623	27.8619	28.4293
1	-4.38082	28.2788	13.7713
1	17.8787	30.8273	9.17844
1	26.4714	21.6897	25.9528
1	16.9874	18.734	13.5732
1	10.7701	42.9137	24.1143
1	9.92659	33.6291	37.1657
1	23.4259	20.8339	24.1669
1	4.73881	37.8634	20.5964
1	18.8787	35.2674	24.5944
1	-8.70722	36.7683	8.56817
2	11.38	44.5882	31.9308
1	19.0488	28.0458	18.3462
1	3.16115	29.9938	9.78225
1	10.5847	41.8334	14.0026
1	4.45391	40.1242	17.7702
2	24.0701	18.291	16.6141
1	16.0353	14.8666	15.1911
2	2.66261	34.5457	26.3143
1	8.18765	35.9445	18.8504
2	19.4262	24.8541	11.985
1	14.2191	27.5749	28.9589
1	8.48824	39.519	35.6199
1	2.7374	33.4515	12.2177
1	16.8317	30.4229	20.6958
2	-3.91068	39.0461	16.5805
1	6.79565	34.0783	11.9151
1	6.07497	27.6317	23.0408
1	4.00923	30.8093	30.0362
1	16.3929	48.3228	13.5827
2	16.9465	21.0158	25.6955
1	11.0358	31.4939	18.3147
2	13.132	34.2131	17.9816
1	-9.31547	39.249	15.6714
2	17.5983	30.2528	16.7068
1	15.2948	33.4009	10.2177
2	14.4201	33.659	23.1792
1	-3.11492	25.1362	13.3025
1	11.8057	14.4383	20.6941
2	20.7818	32.7061	13.7324
1	-4.23213	30.6698	16.5988
2	20.2547	35.3439	5.57883
2	8.17469	13.0124	16.5562
2	-2.02886	17.515	12.9097
1	2.15443	17.6448	16.2131
1	-3.8486	24.2238	19.793
2	6.60678	43.9102	30.8808
1	0.540401	34.7038	11.6485
2	9.55992	36.3061	6.14726
2	25.3761	22.1702	21.3435
1	7.13376	26.7725	20.1632
2	-6.50474	27.9128	9.69765
1	3.49798	18.8727	14.0815
1	14.5404	47.4038	25.7576
2	17.8157	31.7912	30.5176
1	10.0189	47.123	25.9579
1	9.81609	33.0614	5.29523
1	-4.28834	38.8194	13.9657
1	0.913587	28.0099	8.98523
2	27.6755	38.3509	14.8156
2	2.60456	36.3527	11.4536
1	11.1209	32.4403	13.0097
1	-1.29197	26.4282	9.3976
2	-5.01736	40.8086	13.238
2	0.589436	28.7867	17.3595
2	-3.07464	36.4521	23.4534
2	0.037663	20.0423	9.99786
1	5.80337	32.5426	14.9681
1	10.1833	35.6946	14.5644
1	19.5281	25.685	17.4145
2	6.07848	30.5365	18.441
1	16.0976	44.5364	10.4019
2	24.4974	23.2151	22.3168
2	15.2873	32.9489	15.7663
1	14.7862	15.4725	15.4161
2	3.85909	17.949	13.6748
1	6.90306	42.6037	14.5902
1	4.91907	28.8079	11.2684
1	2.8071	36.3369	3.39715
1	12.862	49.8817	24.0455
2	21.4398	24.8114	15.4466
1	10.5962	36.3493	28.0351
1	24.3757	27.3326	23.5397
2	18.6373	39.08	12.0053
1	13.473	49.216	21.6472
1	3.67045	23.2939	13.9801
1	3.09919	23.8803	15.1481
2	5.03269	46.8419	24.8948
1	21.8681	20.4596	19.8289
2	3.46105	45.6495	18.159
2	1.40716	53.0438	23.1077
1	10.5931	41.1161	27.5543
2	13.8661	42.1104	12.7937
1	13.0489	21.0388	26.916
2	5.06425	27.0328	25.9309
2	1.8365	45.6001	22.0757
1	4.541	35.8086	36.0951
1	22.3347	23.0724	18.4394
1	10.6219	27.1903	10.866
2	15.2379	38.224	14.337
1	4.69016	22.8095	9.4301
1	9.11031	39.042	16.8401
2	22.3143	15.2076	22.4796
1	11.8671	32.2683	41.1282
1	21.6714	38.0643	15.278
2	17.9455	43.6608	18.652
1	18.1285	31.7445	11.3718
1	5.2996	37.6003	13.3686
1	16.0054	44.2812	19.5811
2	15.1443	19.9944	10.5848
1	27.4696	36.3022	14.22
2	1.54711	34.4947	8.44788
1	-5.57741	37.2907	18.1384
1	12.9457	29.8459	35.4147
2	6.33371	23.3272	19.45
2	7.75035	19.9846	10.7742
1	11.4491	31.7897	36.4528
1	14.9765	21.9599	9.65942
1	17.425	41.1229	22.4152
2	8.02125	27.6404	3.11664
1	20.187	32.5128	15.7377
2	4.0323	17.0954	19.0326
1	-0.180324	29.0276	11.0451
1	8.91036	38.594	34.5086
1	9.97722	41.6336	35.3082
1	21.5389	27.8019	19.142
2	13.9884	25.889	24.8754
1	8.8278	20.3652	14.3975
2	9.54758	19.0682	25.6333
1	14.3026	22.5134	28.4058
2	20.7922	36.5711	8.61588
1	14.1416	39.7041	16.2397
1	16.8731	26.3238	8.88831
2	17.9748	38.5946	14.2271
2	-4.82946	28.5722	6.894
1	-2.25629	34.4269	17.4599
2	8.76199	28.8502	36.1329
1	13.0247	41.696	14.8628
1	14.1564	48.4921	0.8008
1	10.0603	25.5191	5.5062
1	4.68671	17.8757	17.0237
2	27.8682	23.2747	23.9508
1	12.3387	21.1196	15.9411
1	7.64818	29.6062	22.2128
1	23.5481	26.041	23.3468
1	11.2464	26.5451	31.0844
2	2.60722	22.5276	16.2345
1	11.5361	37.7665	30.5111
1	19.1176	46.7966	20.3508
1	8.01973	19.2895	14.9283
2	20.8463	29.5317	25.1053
1	18.077	33.0277	7.79632
2	20.1689	33.9231	29.6323
1	12.6697	26.5705	9.38513
2	14.084	54.4559	19.3779
1	4.40267	25.5653	13.1458
2	19.0354	33.391	27.0171
1	2.77386	32.7896	19.4781
2	13.1146	20.2683	26.2794
1	2.83798	26.0413	16.1542
1	8.39196	42.4798	23.2944
1	18.887	31.4272	10.0682
1	18.5652	39.6148	19.1409
1	13.2907	35.929	21.9038
1	12.3678	39.5002	27.2263
2	10.9619	29.6051	34.603
1	13.7572	25.313	32.0081
2	2.37788	33.4458	25.0292
1	19.6992	45.7455	20.6864
2	27.1263	29.8036	15.6368
1	0.19415	31.779	19.2049
2	4.31813	29.8948	7.17715
1	11.1648	30.2016	42.8216
2	21.4611	29.3687	10.883
1	-4.45952	33.5411	16.0112
1	11.6951	35.9235	5.80262
2	16.7178	48.7621	26.4249
1	18.1886	32.6726	29.9535
1	6.47082	46.4509	18.8928
1	20.9627	33.4584	16.6177
1	15.4004	45.1158	2.55291
1	10.6078	26.0004	12.846
1	18.3984	20.0763	21.1488
2	6.20265	16.5379	19.5465
1	9.46954	38.2249	33.5131
2	23.3484	14.9124	14.7507
1	-6.70064	35.888	11.3723
1	2.51307	45.8956	22.9617
2	13.4773	49.0932	9.95764
1	19.1975	25.58	16.0499
1	4.10618	37.22	15.4607
1	-3.14212	26.0266	5.81777
1	2.97419	36.2842	21.2977
2	11.6096	32.3264	33.3922
1	-8.82161	38.5869	16.5502
1	12.5284	42.511	10.733
1	6.03458	17.0699	18.7395
2	18.9527	38.9762	15.8158
1	-1.95949	31.8347	16.6398
1	4.07556	29.8983	29.0118
1	13.2982	42.4797	4.69321
1	11.2025	33.3837	21.9214
1	11.764	23.1962	28.9626
2	-0.757378	36.8697	19.5071
1	11.5048	24.242	14.2658
1	1.78483	30.1971	10.1518
1	-1.70844	30.756	13.8937
1	13.5465	33.4845	30.2679
1	18.2833	34.174	26.7662
2	22.9845	14.6384	25.1431
1	1.29936	33.075	15.6325
1	8.09881	24.6027	11.5651
1	14.9397	42.0953	25.1484
1	18.4156	28.5071	8.35071
1	-1.9959	26.1342	17.5842
1	-0.811284	22.0054	10.8217
1	19.4414	27.1346	23.6646
2	14.3419	44.8072	7.73377
1	11.2969	37.8721	17.1784
1	15.0377	29.8886	31.8969
2	-2.51889	26.8176	16.7955
1	3.21494	27.5122	10.1629
1	15.0933	40.2182	21.3643
2	-6.70299	28.2743	11.25
1	11.2685	35.7152	18.4972
1	17.6739	21.7533	27.7669
1	-4.7754	35.8799	27.3417
1	9.04298	36.7517	17.9591
2	2.8086	45.367	28.1412
1	10.6127	28.1986	27.2277
1	8.64575	36.1094	30.0308
1	6.82629	37.5598	11.3397
1	6.98272	31.1383	24.236
2	0.328926	29.6956	15.9795
1	20.1402	19.1759	27.2548
1	5.39048	27.6932	12.139
1	14.4182	22.6485	13.1683
1	16.5627	30.752	13.8968
1	10.1163	29.5768	6.43031
2	11.8084	12.2374	17.1976
1	21.2971	26.6631	20.1439
2	8.719	27.2557	8.04536
1	16.981	20.1441	13.1357
1	14.3098	22.6585	11.9369
2	9.48436	33.7066	9.93841
1	20.967	31.8955	11.0705
1	12.3618	46.6515	22.117
1	6.84607	32.5067	33.3968
1	2.22384	27.4445	9.02319
2	16.6313	25.7737	14.6285
1	0.502595	37.1255	21.4177
1	5.31741	44.8952	16.4823
1	11.4763	26.7897	12.0056
1	8.65988	32.9337	23.3874
1	16.0518	48.9592	19.8284
2	10.0113	42.7179	35.2293
1	28.1017	37.276	14.92
1	12.0264	22.2932	8.9948
2	15.0876	42.8092	17.3742
1	10.24	25.2874	28.8458
2	12.9138	35.7872	17.0886
1	-1.73495	23.2897	12.9409
1	11.7117	33.4957	34.9941
2	17.1809	13.0991	14.5147
1	19.5654	33.2639	6.07246
1	19.9523	27.5298	24.8952
1	7.85396	32.1779	12.5827
2	8.04327	41.5216	36.5061
1	4.70175	41.8433	21.103
2	8.41722	37.2893	21.7782
1	-3.25986	34.0515	15.2789
1	3.62097	32.2203	29.7975
2	11.2055	11.243	16.2101
1	3.29238	17.7877	16.5823
2	11.7779	34.3392	15.7172
1	-0.693491	34.5253	21.4337
2	9.54832	40.4185	6.98687
1	-4.3704	35.0972	26.2375
1	8.21739	39.6913	10.6918
1	-0.147402	40.0145	12.5397
1	11.6836	32.1695	29.3666
1	22.6944	26.6946	20.9236
1	18.3282	36.7779	22.8586
1	20.5267	16.9732	14.7333
2	6.49522	16.7977	10.2226
1	11.5388	16.8805	19.647
1	5.39312	28.5926	27.2895
2	15.053	44.7012	23.4376
1	2.26803	51.4531	24.003
1	4.2149	43.8544	28.007
2	17.7594	28.4663	14.4757
2	-6.77027	34.5188	19.8981
1	12.0209	47.3128	24.5255
2	15.3139	30.0415	12.4135
1	11.8938	28.4978	22.3567
1	-4.08982	31.9266	12.2151
1	-2.79131	37.445	15.7136
1	3.14089	46.0424	23.9989
2	5.54177	43.4266	5.254
1	24.2845	22.1545	17.091
1	19.652	33.0616	30.1809
1	-1.09881	22.6734	9.68476
1	10.2128	34.9682	7.58789
1	21.1903	40.3423	12.2664
2	9.13303	21.7446	19.7517
1	8.51247	37.1526	28.9814
2	8.7415	14.7514	19.9171
1	-1.15078	25.1564	16.9956
1	3.82871	46.6181	18.0248
1	15.2202	30.9329	16.0405
1	10.5509	38.607	31.2995
1	12.9252	24.5493	30.9732
1	7.67134	35.7883	8.53049
2	-7.08149	32.2457	11.677
1	14.0594	31.1868	29.6751
2	-1.32699	35.3285	21.5257
1	17.8672	38.5672	11.6374
1	16.5354	27.9335	20.356
2	20.6321	45.7452	20.164
1	14.4763	26.7136	24.2763
1	10.5219	28.7118	25.8329
2	11.8468	17.4276	18.7168
1	7.02189	12.483	13.4765
1	16.9428	35.4609	27.8514
1	28.2276	22.5123	24.6625
1	0.491357	32.2262	16.5463
1	22.5554	20.7255	23.2908
1	9.05047	29.0796	5.66733
2	6.71504	44.0608	22.2542
1	10.7634	44.7587	27.0461
1	-4.61599	27.0058	14.444
1	16.6636	23.6626	8.33978
1	5.11191	46.5509	18.4582
1	24.9594	20.3289	27.5655
2	1.27827	26.303	17.7648
1	15.582	22.7993	28.8538
1	8.05837	38.5264	38.0674
1	10.4557	26.8634	8.26716
1	14.8907	32.7902	33.3022
1	15.0365	40.9627	11.3301
1	-4.57217	28.4485	12.3131
1	20.6711	29.4945	10.1947
1	16.6449	45.875	17.8194
1	13.5256	31.8787	9.3094
1	5.93872	42.5999	5.89096
2	8.14469	39.3621	9.70881
1	15.0828	29.607	33.2919
1	2.33843	32.1639	18.1271
1	-2.96652	36.3829	12.2501
2	7.32389	29.1484	4.24644
1	7.99482	26.0682	16.567
1	11.3158	21.7067	7.9262
1	6.95698	31.7539	5.6433
1	11.257	27.026	9.50274
1	10.0747	41.3971	33.8783
2	15.8579	26.5366	6.22232
2	9.86256	27.3493	2.97841
1	20.1346	24.1832	25.6554
2	18.9246	28.0258	4.97332
1	4.68344	22.6892	10.8867
1	-0.698408	31.6824	14.4586
1	14.0997	44.9493	2.09933
1	-6.14699	37.9385	15.7548
1	10.4694	43.8776	31.6564
2	21.8077	37.1768	17.0736
2	21.5284	28.5149	26.1941
1	16.72	39.1544	17.634
1	14.3926	23.2217	23.183
1	25.1761	35.6007	13.6973
2	19.0651	26.9017	20.9062
2	7.87504	38.9657	38.9449
2	23.9016	24.0435	15.9795
1	21.9859	40.1347	13.4307
1	16.6735	49.4028	24.2836
2	22.689	40.7662	15.8252
1	3.60988	36.675	5.88653
2	1.06601	36.5979	8.87554
1	11.943	42.3634	14.3941
1	1.11879	19.0926	12.6812
2	16.2795	44.8146	11.4841
1	13.6375	45.832	0.971985
1	7.72627	13.9427	11.8676
1	11.7037	21.3855	27.2433
2	11.1415	28.4054	13.8741
1	-0.683548	22.4687	12.2516
2	-5.14252	30.1766	6.44689
2	8.16209	32.4678	9.76532
1	3.9588	40.5888	18.9324
2	8.57028	42.4223	21.123
1	10.2673	23.7766	24.3924
2	16.6387	49.0261	11.4918
1	5.27655	33.412	35.2163
2	14.7219	40.5992	13.4768
2	14.5475	40.9225	5.85979
1	-6.22294	29.7845	9.71289
1	5.81471	47.6366	21.0627
1	8.20194	31.1172	5.1179
1	5.60261	22.0197	7.11144
1	21.7011	37.0298	15.9505
1	19.7387	41.8051	19.4124
2	15.7637	21.0744	14.717
2	16.9836	25.5187	17.7947
1	10.9337	31.2723	19.7952
1	22.1547	25.0853	25.4016
1	10.4546	24.9434	13.8127
1	5.92266	26.1824	20.8619
1	15.7157	36.8429	5.62112
2	19.5195	41.6652	22.7242
1	11.0635	43.8245	-0.68762
1	7.32336	17.1239	18.0513
2	13.8778	47.0436	13.7167
1	3.75557	45.4964	26.245
1	1.75291	25.6368	16.938
2	20.4345	43.7752	14.8676
1	-3.41255	35.0995	21.6608
1	8.30696	39.0536	36.8314
1	16.2044	33.3661	18.3815
1	12.537	43.1261	26.1479
1	22.0068	16.4538	25.5849
2	-6.66133	28.2497	15.8942
1	20.5179	28.3178	18.3724
1	16.9714	22.5248	32.9748
1	15.323	32.3093	18.1796
2	19.6342	33.2888	31.464
1	13.847	45.9573	20.0218
1	6.62447	39.7956	29.8758
1	15.497	30.8741	8.86042
2	14.5424	24.7849	32.4512
1	-6.34551	36.1774	12.7954
1	17.4844	36.9815	21.6835
1	13.4215	20.1458	16.0685
1	10.525	36.7615	17.7926
1	5.73457	39.5318	25.8729
1	10.7291	40.6549	10.8876
2	12.9621	27.7677	35.4851
1	17.6656	25.7599	7.78981
1	-2.53329	33.3366	18.4065
1	24.6915	28.1509	20.9455
1	12.6686	22.7285	10.1891
2	10.7377	49.4485	23.4257
1	-4.5766	25.1984	17.2904
1	13.6105	27.1541	13.0837
1	14.3201	50.3124	21.3498
1	15.3431	39.2141	25.0625
2	10.5888	33.5487	6.02206
1	15.0479	34.9136	15.106
2	-1.10387	23.9663	7.00225
1	8.77742	31.435	31.3766
1	16.2638	37.2603	26.455
2	19.9967	25.6402	14.2725
1	2.83421	37.7345	10.1462
2	-4.69085	23.8815	20.5256
1	25.1562	20.9836	26.21
1	18.9759	25.3177	14.7339
2	8.79716	24.0785	15.9704
1	2.32919	32.8646	9.70477
1	13.8919	23.7157	30.2079
1	-6.99915	35.4725	19.3119
1	12.208	27.3676	31.9088
1	11.458	39.8415	20.4429
1	10.6827	34.8654	19.2701
2	14.0776	30.069	27.9741
1	-4.00669	29.478	14.5924
1	11.1124	47.352	-0.843053
1	20.0807	38.8062	22.5219
1	18.0733	35.2497	25.8266
2	11.6234	34.6873	28.7825
1	15.6838	25.2591	14.8893
1	7.84485	42.5414	15.8935
1	7.43332	47.495	26.7349
2	2.88081	46.9141	29.7978
1	2.86073	40.164	19.8794
2	25.3433	23.0718	15.4718
1	-1.04562	35.0343	13.5243
1	12.1252	36.7931	31.4788
2	4.97149	44.9141	22.0311
1	5.84824	32.071	5.9987
1	13.8828	42.7109	15.4425
1	-0.829889	36.1298	18.7119
1	15.1505	52.5226	19.9034
1	20.6331	50.0878	18.6589
1	14.638	29.04	23.5454
1	16.5717	30.8142	9.73515
1	5.4991	21.5352	13.3273
1	20.7866	32.7705	5.40251
2	-4.11493	26.1247	10.1852
1	6.73983	20.0128	14.9402
1	22.6639	19.2609	28.1845
1	13.9832	44.1997	8.61768
1	13.4391	36.0317	19.4039
1	1.00631	29.6023	16.701
1	5.97124	34.7655	20.8056
2	16.288	20.167	9.34353
1	-1.65108	33.0408	25.4157
2	8.16412	27.9743	31.0609
1	3.14102	36.5233	4.58925
1	10.5463	39.0072	16.8107
2	12.4578	23.074	5.53176
1	0.58846	22.5547	15.1572
2	3.2646	35.5451	2.6622
1	17.4625	33.5892	8.85029
2	19.2475	25.7491	6.61789
1	14.4879	25.7129	15.6323
1	10.2988	24.3317	19.6973
1	11.1111	30.8538	37.4885
2	-3.25085	31.8107	12.8968
1	12.4743	33.0029	13.005
2	28.1022	21.5115	24.2472
1	8.43522	34.8153	19.6978
1	7.4684	48.8242	24.6077
2	14.9757	25.0202	8.93403
1	8.83494	37.4456	38.5692
2	10.1769	46.856	-0.739955
1	27.2084	29.8155	16.7724
1	23.9884	35.7109	13.961
1	8.8165	42.0531	10.5359
2	4.09874	30.9279	35.1732
1	15.099	40.7981	16.6772
1	17.2511	22.2965	13.7171
1	4.92251	42.8498	27.2464
1	24.5888	23.1923	16.2233
1	11.6317	28.7293	24.877
2	8.97091	41.5668	26.5009
1	9.5288	40.8139	4.93965
1	13.3504	28.6024	35.1029
1	4.93069	34.5272	35.6238
1	10.9021	29.8666	38.0975
1	1.48791	36.1681	21.6173