777
Atoms. Timestep: 1200000
3   11.0635 43.8245 -0.68762
3   9.95204 42.7792 -0.554966
3   12.6949 45.576  -0.078861
3   12.078  44.2876 0.168502
3   13.6375 45.832  0.971985
3   9.99337 42.4779 0.982103
3   12.2336 43.7123 1.48284
3   10.8971 43.0198 1.78957
3   14.0997 44.9493 2.09933
3   13.174  43.9352 2.49209
3   8.14319 29.6803 4.6999
3   8.20194 31.1172 5.1179
3   20.7866 32.7705 5.40251
3   20.7332 30.0286 5.44004
3   20.794  31.475  5.44915
3   9.05047 29.0796 5.66733
3   9.30947 31.6707 5.73549
3   18.7456 28.571  5.89847
3   19.5654 33.2639 6.07246
3   19.5023 29.7067 6.13881
3   10.1163 29.5768 6.43031
3   2.3768  26.3891 6.53678
3   0.973622    26.249  6.54492
3   10.0482 30.9648 6.75849
3   4.73911 31.8681 6.89038
3   18.8519 32.2783 6.89097
3   18.6752 27.8916 7.12435
3   19.1457 30.8537 7.16741
3   -1.14604    25.0097 7.39233
3   3.25851 25.654  7.40838
3   19.0305 26.3904 7.44643
3   3.87699 32.8356 7.4805
3   0.111067    26.0066 7.61334
3   4.80416 30.621  7.6703
3   17.6656 25.7599 7.78981
3   11.0388 31.3184 7.8037
3   2.86116 26.8292 7.86378
3   18.0567 30.0633 7.89081
3   3.83295 24.4668 7.96423
3   11.9726 30.3359 8.1734
3   11.4595 32.6688 8.24674
3   13.35   42.738  8.3156
3   18.4156 28.5071 8.35071
3   13.2781 30.8135 8.41014
3   14.5082 30.0145 8.46109
3   -0.072208   27.0008 8.60608
3   13.9832 44.1997 8.61768
3   3.27153 32.2248 8.61894
3   3.54843 30.9263 8.8274
3   15.497  30.8741 8.86042
3   -1.38114    25.1779 8.88006
3   16.8731 26.3238 8.88831
3   0.913587    28.0099 8.98523
3   2.22384 27.4445 9.02319
3   15.4161 26.0218 9.13006
3   17.8787 30.8273 9.17844
3   4.13318 24.2078 9.23875
3   13.5256 31.8787 9.3094
3   12.6697 26.5705 9.38513
3   -1.29197    26.4282 9.3976
3   12.3682 32.8121 9.4193
3   4.69016 22.8095 9.4301
3   14.8688 32.1555 9.43108
3   -6.95493    35.006  9.4484
3   -7.77848    36.1772 9.45959
3   11.257  27.026  9.50274
3   13.3754 42.0371 9.62051
3   18.7387 28.0471 9.68375
3   2.32919 32.8646 9.70477
3   16.5717 30.8142 9.73515
3   3.16115 29.9938 9.78225
3   10.0708 41.5734 9.79972
3   14.7897 44.6529 9.84703
3   0.874694    36.3883 9.91487
3   17.5571 27.2468 9.9228
3   7.5444  35.4962 9.97934
3   0.811824    29.0776 10.0102
3   13.471  44.5316 10.0571
3   18.887  31.4272 10.0682
3   14.5614 41.4476 10.0978
3   1.78483 30.1971 10.1518
3   3.21494 27.5122 10.1629
3   20.6711 29.4945 10.1947
3   15.2948 33.4009 10.2177
3   1.17281 34.9979 10.3331
3   3.69425 28.7285 10.4051
3   8.57335 33.3007 10.4179
3   20.1668 30.9818 10.4452
3   -2.02864    27.1755 10.4536
3   14.8168 26.4717 10.4837
3   3.86267 24.9035 10.5022
3   -6.20053    34.7493 10.534
3   13.4666 26.6536 10.5341
3   8.8165  42.0531 10.5359
3   7.85211 36.7664 10.5747
3   12.3273 33.4966 10.6064
3   7.48789 34.1974 10.6266
3   8.21739 39.6913 10.6918
3   -6.60349    31.9092 10.7068
3   -5.69722    30.7282 10.7136
3   12.5284 42.511  10.733
3   19.5352 28.6044 10.7562
3   -7.6424 36.7767 10.7852
3   3.96662 26.3136 10.8014
3   12.383  43.9133 10.8196
3   -0.811284   22.0054 10.8217
3   -0.107566   20.6792 10.8564
3   10.6219 27.1903 10.866
3   4.68344 22.6892 10.8867
3   10.7291 40.6549 10.8876
3   -5.76345    33.3722 10.9317
3   16.4733 36.5718 10.9558
3   1.92322 37.024  10.9702
3   9.15401 37.3181 11.0246
3   -0.180324   29.0276 11.0451
3   10.9935 34.0411 11.0626
3   20.967  31.8955 11.0705
3   15.5526 37.862  11.0752
3   -1.53491    28.3639 11.0802
3   9.30967 38.7158 11.1507
3   -7.95034    38.1957 11.1715
3   2.28422 32.531  11.1872
3   8.03247 41.0963 11.2142
3   16.5926 39.0626 11.2359
3   1.76895 31.1786 11.2396
3   4.91907 28.8079 11.2684
3   17.0777 27.4335 11.277
3   16.935  31.0585 11.2846
3   15.0365 40.9627 11.3301
3   6.82629 37.5598 11.3397
3   18.1285 31.7445 11.3718
3   -6.70064    35.888  11.3723
3   14.5463 33.337  11.4066
3   10.5476 39.3662 11.4326
3   -4.4886 30.8418 11.438
3   11.9213 41.3917 11.4513
3   17.7795 37.139  11.4901
3   15.6774 26.9872 11.5364
3   4.1294  23.9286 11.5424
3   20.678  33.2458 11.5686
3   17.8672 38.5672 11.6374
3   -3.79001    29.5339 11.6456
3   0.540401    34.7038 11.6485
3   18.9688 22.9829 11.6545
3   7.08804 38.9152 11.6746
3   5.36991 21.7455 11.6815
3   8.95827 32.6912 11.736
3   13.2145 33.2952 11.7402
3   -2.35451    29.3253 11.8329
3   6.79565 34.0783 11.9151
3   12.8376 26.8788 11.9364
3   10.1143 36.5324 11.9407
3   0.626235    20.4698 11.9819
3   10.2418 33.0016 11.989
3   11.4763 26.7897 12.0056
3   4.61181 26.5418 12.0084
3   1.18269 37.7416 12.0887
3   -0.144036   30.0041 12.1104
3   -8.23803    39.1474 12.1185
3   5.39048 27.6932 12.139
3   6.13379 35.4071 12.153
3   19.2923 28.4681 12.1541
3   -4.90564    33.1978 12.1671
3   5.22459 20.5941 12.1825
3   -4.08982    31.9266 12.2151
3   2.7374  33.4515 12.2177
3   18.0743 20.6962 12.2202
3   -0.683548   22.4687 12.2516
3   19.5052 33.5342 12.2546
3   5.98029 36.8109 12.2656
3   -4.57217    28.4485 12.3131
3   -2.70962    24.2361 12.3311
3   17.9276 27.9971 12.391
3   0.796697    30.9947 12.4022
3   -7.18427    38.3238 12.4064
3   18.3201 22.026  12.4273
3   12.6242 40.5491 12.4276
3   7.12373 40.9505 12.4479
3   8.54605 23.6009 12.4743
3   18.974  24.1456 12.4755
3   16.3185 30.5958 12.513
3   8.39224 22.0734 12.5448
3   18.845  32.1526 12.5638
3   14.1185 41.0951 12.5814
3   7.85396 32.1779 12.5827
3   1.11879 19.0926 12.6812
3   -1.42727    30.0946 12.6923
3   0.141061    35.4735 12.7289
3   6.69741 32.8551 12.7764
3   14.9738 27.3007 12.7808
3   6.62793 39.6083 12.7908
3   -6.34551    36.1774 12.7954
3   10.9275 38.9063 12.8101
3   0.255387    21.6128 12.8203
3   4.01567 24.1578 12.8729
3   10.741  37.4887 12.9366
3   -1.73495    23.2897 12.9409
3   0.505197    36.8464 13.0046
3   12.4743 33.0029 13.005
3   11.1209 32.4403 13.0097
3   13.6105 27.1541 13.0837
3   -2.22999    34.4078 13.0962
3   -4.6921 34.1502 13.135
3   16.981  20.1441 13.1357
3   4.40267 25.5653 13.1458
3   6.2424  28.2451 13.2123
3   -3.11492    25.1362 13.3025
3   13.5796 35.5918 13.304
3   5.4991  21.5352 13.3273
3   12.0136 39.6344 13.3369
3   5.2996  37.6003 13.3686
3   -6.63448    37.4563 13.4727
3   13.9941 36.9019 13.4839
3   3.94085 35.4302 13.508
3   -1.04562    35.0343 13.5243
3   16.9874 18.734  13.5732
3   2.72939 33.3263 13.5926
3   2.30303 19.4622 13.6179
3   7.96658 21.1736 13.6443
3   -5.66154    35.2132 13.6484
3   0.542548    31.753  13.6516
3   17.3168 27.9737 13.6872
3   18.0451 17.6992 13.6885
3   17.2511 22.2965 13.7171
3   5.81337 38.8193 13.7331
3   15.8972 27.9701 13.7402
3   -4.38082    28.2788 13.7713
3   10.4546 24.9434 13.8127
3   18.4292 24.3266 13.8231
3   9.14727 24.1202 13.8496
3   18.8351 31.6893 13.8533
3   -3.42382    34.1399 13.8879
3   -1.70844    30.756  13.8937
3   16.5627 30.752  13.8968
3   3.67045 23.2939 13.9801
3   4.44696 36.7408 14.0465
3   16.5498 21.2185 14.0521
3   3.49798 18.8727 14.0815
3   19.3963 17.6306 14.1382
3   2.1467  20.7674 14.1468
3   2.91158 34.7629 14.1499
3   4.2089  21.9048 14.1501
3   0.939042    21.5747 14.1592
3   6.66723 21.224  14.2227
3   1.53742 32.6711 14.2262
3   11.5048 24.242  14.2658
3   13.9136 34.6246 14.2942
3   -1.42048    23.71   14.2949
3   17.3118 23.5999 14.3101
3   -0.079145   37.0761 14.3155
3   15.1169 37.2302 14.3215
3   12.0177 43.7892 14.3408
3   12.9875 27.425  14.3812
3   6.64231 27.5903 14.3819
3   19.9876 32.3146 14.3869
3   11.943  42.3634 14.3941
3   8.8278  20.3652 14.3975
3   -4.61599    27.0058 14.444
3   -0.698408   31.6824 14.4586
3   16.8755 17.7251 14.4756
3   14.7369 22.9584 14.5042
3   8.73717 35.7334 14.5081
3   4.70735 25.7504 14.5284
3   10.1833 35.6946 14.5644
3   -1.05528    36.058  14.5762
3   -4.00669    29.478  14.5924
3   -2.89745    30.4452 14.6599
3   17.7769 31.1683 14.7024
3   15.9539 23.8634 14.7046
3   -2.36835    24.8615 14.7096
3   3.45985 20.856  14.7325
3   20.5267 16.9732 14.7333
3   15.3157 28.8487 14.7894
3   13.0247 41.696  14.8628
3   5.99702 26.3995 14.8808
3   15.6838 25.2591 14.8893
3   13.3744 44.0224 14.9251
3   8.01973 19.2895 14.9283
3   6.73983 20.0128 14.9402
3   7.64346 34.8603 14.9682
3   -5.98201    35.1097 14.9956
3   5.41783 39.2572 15.0353
3   4.14612 19.63   15.0929
3   15.0479 34.9136 15.106
3   11.4296 23.1105 15.1146
3   8.96081 23.3546 15.1377
3   3.09919 23.8803 15.1481
3   0.58846 22.5547 15.1572
3   9.99442 20.988  15.1723
3   15.6949 36.2501 15.191
3   13.2748 40.2419 15.2742
3   -3.25986    34.0515 15.2789
3   10.1801 22.4166 15.336
3   -0.517692   23.4306 15.346
3   3.58978 25.2006 15.396
3   5.59331 19.2477 15.407
3   13.8828 42.7109 15.4425
3   4.10618 37.22   15.4607
3   10.6202 34.5752 15.4626
3   2.5147  35.2989 15.4629
3   9.11246 15.8702 15.4794
3   19.7204 17.8483 15.4796
3   13.8957 27.1125 15.5358
3   13.7698 23.3285 15.5501
3   10.2758 14.9468 15.589
3   14.4879 25.7129 15.6323
3   1.29936 33.075  15.6325
3   13.1971 17.393  15.6997
3   -2.79131    37.445  15.7136
3   -1.9367 36.3071 15.7285
3   20.187  32.5128 15.7377
3   12.5661 22.4999 15.768
3   -5.12245    27.1507 15.7726
3   1.8041  23.1458 15.7814
3   10.8109 17.6199 15.8007
3   12.7204 18.9337 15.8154
3   11.0162 20.4357 15.8204
3   -4.66547    29.5627 15.8256
3   9.39168 17.269  15.8485
3   16.4781 17.8274 15.855
3   4.61882 38.4402 15.8648
3   -0.689611   31.8531 15.8823
3   11.9627 16.7435 15.8865
3   7.84485 42.5414 15.8935
3   13.5811 24.6237 15.9014
3   8.35209 18.216  15.9327
3   9.52314 33.7603 15.9369
3   12.3387 21.1196 15.9411
3   14.7119 28.2209 15.9458
3   -3.02008    31.0984 15.9496
3   8.76701 41.3472 15.9779
3   11.2378 18.9672 15.9998
3   -4.45952    33.5411 16.0112
3   1.71592 34.4182 16.0188
3   8.08606 33.9544 16.0226
3   -5.74497    34.1184 16.0357
3   15.3621 33.9094 16.0522
3   13.4215 20.1458 16.0685
3   11.664  15.2983 16.1057
3   -2.25338    34.8022 16.1196
3   2.83798 26.0413 16.1542
3   17.9425 31.1865 16.2267
3   14.1416 39.7041 16.2397
3   9.86843 32.3256 16.2418
3   3.20838 36.3967 16.2463
3   16.6615 36.4891 16.2606
3   -5.66657    28.4426 16.3829
3   5.89837 32.6275 16.4209
3   19.0249 18.6423 16.4578
3   5.90552 18.4338 16.5268
3   0.491357    32.2262 16.5463
3   14.7411 42.2027 16.5631
3   17.5477 18.3284 16.5734
3   -0.164185   24.2323 16.5883
3   19.4912 31.4458 16.5912
3   8.23455 40.1803 16.5919
3   -4.23213    30.6698 16.5988
3   -1.95949    31.8347 16.6398
3   1.22699 24.3595 16.6484
3   15.099  40.7981 16.6772
3   -3.6475 38.0654 16.7035
3   7.28724 17.8869 16.8045
3   10.5463 39.0072 16.8107
3   7.22304 33.1695 16.8378
3   9.11031 39.042  16.8401
3   6.76519 42.9595 16.9285
3   1.75291 25.6368 16.938
3   4.68671 17.8757 17.0237
3   6.9474  39.7773 17.1575
3   11.2969 37.8721 17.1784
3   4.1146  38.8789 17.1799
3   8.2953  37.8997 17.1915
3   16.1077 34.2792 17.2519
3   6.95206 38.3264 17.284
3   3.51147 31.8857 17.3114
3   19.5281 25.685  17.4145
3   4.8556  32.466  17.4368
3   -2.25629    34.4269 17.4599
3   16.4952 35.6209 17.4918
3   2.82291 36.8403 17.5115
3   5.86992 40.7473 17.5398
3   22.2844 29.9229 17.5514
3   5.85273 42.1931 17.5996
3   9.82785 31.7385 17.6045
3   19.7688 30.5493 17.6484
3   4.45391 40.1242 17.7702
3   10.525  36.7615 17.7926
3   21.6749 24.1678 17.8085
3   20.8767 29.6762 17.8756
3   3.18733 38.1722 17.9094
3   0.926169    32.0718 17.9254
3   12.4372 31.8467 17.9477
3   -4.08581    37.445  17.9579
3   9.04298 36.7517 17.9591
3   23.0551 21.9511 17.967
3   18.6429 26.7713 17.9736
3   7.32336 17.1239 18.0513
3   -1.89381    32.2241 18.0793
3   2.33843 32.1639 18.1271
3   -5.57741    37.2907 18.1384
3   7.06055 45.3379 18.1605
3   7.61437 32.7129 18.1697
3   15.323  32.3093 18.1796
3   20.6302 25.0154 18.201
3   17.1984 26.5007 18.2663
3   4.80606 17.3428 18.2906
3   11.0358 31.4939 18.3147
3   17.9156 38.6722 18.3192
3   23.267  29.3905 18.3372
3   19.0488 28.0458 18.3462
3   -2.13853    35.6546 18.3592
3   20.5179 28.3178 18.3724
3   16.2044 33.3661 18.3815
3   -2.53329    33.3366 18.4065
3   8.62707 31.7683 18.4068
3   22.3347 23.0724 18.4394
3   22.8622 20.6533 18.4693
3   11.2685 35.7152 18.4972
3   8.94673 43.6002 18.5354
3   19.3955 40.6766 18.5443
3   18.5236 30.4126 18.5511
3   17.0778 51.1369 18.6888
3   -3.391  36.4605 18.7211
3   5.01087 42.7725 18.7212
3   16.7873 36.1854 18.7366
3   6.03458 17.0699 18.7395
3   5.28372 32.8177 18.7594
3   8.25651 44.822  18.8164
3   18.1065 29.1058 18.8182
3   18.0129 50.0645 18.8191
3   8.18765 35.9445 18.8504
3   6.47082 46.4509 18.8928
3   3.9588  40.5888 18.9324
3   22.9344 28.0973 19.0593
3   -5.70381    36.3141 19.0789
3   17.4869 37.4806 19.0994
3   18.5652 39.6148 19.1409
3   21.5389 27.8019 19.142
3   13.037  31.8655 19.1441
3   17.957  31.5988 19.1796
3   10.7798 42.0975 19.1873
3   6.63605 33.2012 19.189
3   0.19415 31.779  19.2049
3   16.2596 45.7359 19.2284
3   10.6827 34.8654 19.2701
3   -1.12948    31.7583 19.2979
3   14.396  32.4364 19.3489
3   16.3045 26.8353 19.3999
3   13.4391 36.0317 19.4039
3   19.7387 41.8051 19.4124
3   17.4138 48.7373 19.4189
3   17.2324 43.4828 19.4203
3   2.77386 32.7896 19.4781
3   13.6948 37.423  19.4783
3   9.87072 43.3    19.4943
3   12.1342 42.6754 19.5239
3   -4.36188    35.9595 19.5703
3   15.0836 26.0051 19.5789
3   16.0054 44.2812 19.5811
3   4.51315 41.8024 19.6127
3   21.0541 25.26   19.6333
3   1.45534 40.0399 19.6412
3   15.7926 51.3553 19.6487
3   8.53523 30.9076 19.6601
3   4.14258 33.1736 19.671
3   7.91693 39.8342 19.6862
3   8.43522 34.8153 19.6978
3   9.31133 39.7985 19.7039
3   -3.05024    33.6111 19.7575
3   15.2491 46.5413 19.7849
3   10.9337 31.2723 19.7952
3   10.4429 40.6044 19.8127
3   14.7579 43.7629 19.8271
3   16.0518 48.9592 19.8284
3   21.8681 20.4596 19.8289
3   20.6301 19.8599 19.8388
3   13.5593 44.6553 19.8641
3   16.3817 33.9795 19.8649
3   2.86073 40.164  19.8794
3   22.5057 23.207  19.8832
3   12.2436 44.0512 19.8961
3   7.38882 30.0864 19.8981
3   16.6282 35.3648 19.9213
3   8.84203 45.5305 19.924
3   17.1575 29.1414 19.975
3   13.847  45.9573 20.0218
3   9.66311 34.1007 20.0378
3   15.06   47.9102 20.0474
3   7.04402 34.1914 20.0876
3   13.1217 41.855  20.0962
3   21.2971 26.6631 20.1439
3   23.6552 27.6074 20.2035
3   9.75465 30.5334 20.256
3   9.92478 44.5892 20.2697
3   14.465  42.384  20.2822
3   0.530972    39.2004 20.2873
3   6.71664 46.8382 20.2963
3   -3.71627    34.8658 20.3534
3   16.5354 27.9335 20.356
3   15.3597 50.1153 20.3652
3   12.1287 31.7796 20.3701
3   12.8343 40.4023 20.3742
3   14.733  33.3241 20.4082
3   1.79019 32.8745 20.4326
3   11.458  39.8415 20.4429
3   7.33556 38.7349 20.4551
3   17.66   42.6357 20.4577
3   17.7533 37.7059 20.4704
3   21.5206 24.1524 20.4836
3   17.3003 31.7105 20.4985
3   18.5029 39.0378 20.5144
3   -2.02737    31.6215 20.5218
3   0.97513 31.5433 20.5233
3   4.51421 34.2537 20.6116
3   13.1668 35.2201 20.6275
3   13.7374 48.1666 20.6666
3   16.8317 30.4229 20.6958
3   18.9374 41.9414 20.7028
3   23.1433 22.2595 20.7109
3   -3.04119    32.623  20.7129
3   11.2814 44.7823 20.7145
3   9.63093 38.7073 20.766
3   15.5908 25.2475 20.7764
3   13.907  38.1349 20.7809
3   5.97124 34.7655 20.8056
3   8.16217 46.4689 20.8118
3   3.38564 37.4861 20.8506
3   13.1161 46.8526 20.8663
3   16.424  32.8757 20.8707
3   13.8897 39.5866 20.8782
3   22.6944 26.6946 20.9236
3   24.6915 28.1509 20.9455
3   22.4264 21.0616 20.9892
3   13.4901 33.8284 21.0137
3   19.7231 20.2994 21.0191
3   15.3717 41.571  21.0366
3   3.33129 34.8299 21.0584
3   2.00708 34.1846 21.0717
3   6.77435 29.6372 21.0858
3   11.1264 28.4988 21.1156
3   10.9883 38.7157 21.1167
3   8.41848 38.052  21.1247
3   18.3984 20.0763 21.1488
3   1.12508 38.334  21.2272
3   12.3466 32.9414 21.2305
3   9.96498 29.4353 21.2313
3   3.04341 39.8986 21.2619
3   2.97419 36.2842 21.2977
3   14.3201 50.3124 21.3498
3   15.0933 40.2182 21.3643
3   16.7989 35.7105 21.3806
3   17.0872 19.9206 21.3904
3   0.502595    37.1255 21.4177
3   16.6396 41.9662 21.4873
3   0.862541    34.9112 21.5347
3   19.2729 39.65   21.5908
3   1.48791 36.1681 21.6173
3   13.473  49.216  21.6472
3   15.9061 27.6886 21.6572
3   17.4844 36.9815 21.6835
3   2.66163 38.5419 21.7265
3   13.9133 37.1431 21.8427
3   11.3833 45.6668 21.8894
3   13.2907 35.929  21.9038
3   11.2025 33.3837 21.9214
3   15.4501 26.348  21.9331
3   8.01197 42.1409 21.958
3   15.9978 30.1279 21.9911
3   18.8922 41.0767 22.0106
3   7.02014 41.1349 22.0217
3   22.9813 26.2416 22.0948
3   12.3618 46.6515 22.117
3   7.64818 29.6062 22.2128
3   21.5648 20.8299 22.2368
3   17.0158 33.41   22.2418
3   20.2218 21.0408 22.251
3   24.5703 27.8977 22.3227
3   11.8938 28.4978 22.3567
3   15.4335 28.8052 22.378
3   17.1031 34.8242 22.4005
3   17.425  41.1229 22.4152
3   9.14947 29.3235 22.4613
3   20.0807 38.8062 22.5219
3   16.8457 20.901  22.5318
3   11.2025 34.8445 22.5528
3   15.6412 39.5273 22.5537
3   15.6413 31.1699 22.8414
3   18.3282 36.7779 22.8586
3   13.0442 48.8655 22.9257
3   4.84711 40.2084 22.9375
3   16.8405 39.9021 23.0365
3   12.4478 35.3018 23.1167
3   19.2874 21.8386 23.1313
3   14.87   25.9143 23.1314
3   19.5347 37.6531 23.1476
3   16.0813 32.5371 23.1798
3   6.16472 40.7783 23.2081
3   12.6933 47.5087 23.2156
3   9.72005 42.8432 23.2451
3   8.39196 42.4798 23.2944
3   23.5481 26.041  23.3468
3   18.1386 35.5264 23.4294
3   11.1056 28.8193 23.5117
3   7.11086 29.8884 23.5397
3   24.3757 27.3326 23.5397
3   14.638  29.04   23.5454
3   17.9372 21.193  23.5493
3   19.8154 23.015  23.6129
3   4.3455  39.0786 23.7001
3   14.7898 30.4701 23.7333
3   9.66641 28.9271 23.764
3   15.5736 39.9519 23.8077
3   6.48464 28.6314 23.9647
3   10.7701 42.9137 24.1143
3   14.4763 26.7136 24.2763
3   6.80176 41.1248 24.4157
3   12.0209 47.3128 24.5255
3   14.1416 28.018  24.5484
3   7.96876 41.9653 24.5825
3   14.6888 43.4062 24.8199
3   11.6317 28.7293 24.877
3   10.7588 47.9828 24.8771
3   17.715  21.403  24.8945
3   4.7599  38.729  25.0529
3   15.3431 39.2141 25.0625
3   9.18766 28.6938 25.1266
3   19.3458 23.2276 25.1308
3   14.9397 42.0953 25.1484
3   16.1072 38.0682 25.2863
3   6.8434  28.2393 25.413
3   10.1726 42.7918 25.4138
3   12.1877 46.1888 25.4557
3   13.0241 28.4177 25.4627
3   13.5713 44.0187 25.5024
3   13.4764 45.4508 25.5034
3   6.0069  40.9827 25.6408
3   8.97442 42.1775 25.6463
3   18.2521 22.508  25.7478
3   13.9592 41.2165 25.7793
3   18.0733 35.2497 25.8266
3   10.5219 28.7118 25.8329
3   5.73457 39.5318 25.8729
3   8.17073 28.2376 25.9566
3   10.0189 47.123  25.9579
3   14.4204 39.8757 26.0049
3   12.7013 41.6974 26.1052
3   12.537  43.1261 26.1479
3   10.8768 45.9441 26.1804
3   16.2638 37.2603 26.455
3   11.628  40.7014 26.4787
3   17.2162 36.1268 26.5872
3   11.1163 43.3424 26.6212
3   18.2833 34.174  26.7662
3   13.0489 21.0388 26.916
3   13.0598 28.2402 26.9269
3   13.6908 39.1181 26.9302
3   10.2027 23.4925 27.0211
3   10.7634 44.7587 27.0461
3   12.3678 39.5002 27.2263
3   10.6127 28.1986 27.2277
3   11.7037 21.3855 27.2433
3   8.24944 27.5139 27.3166
3   16.6502 19.509  27.3471
3   14.2893 27.7271 27.4884
3   15.454  20.3399 27.4887
3   14.3263 21.2403 27.4934
3   7.47967 38.9428 27.4979
3   17.7132 20.2161 27.5262
3   10.5931 41.1161 27.5543
3   15.3097 37.1564 27.59
3   9.77917 24.8337 27.6512
3   17.6739 21.7533 27.7669
3   14.265  38.0311 27.8
3   11.9449 28.6432 27.817
3   9.62556 27.4493 27.8286
3   16.9428 35.4609 27.8514
3   8.10792 40.2013 27.8764
3   9.50731 40.1343 27.8881
3   11.1225 22.6092 27.9191
3   10.7165 42.5355 27.9464
3   10.5962 36.3493 28.0351
3   11.6011 38.7607 28.1038
3   17.6656 34.3343 28.1071
3   10.2033 38.8564 28.2113
3   16.8536 22.7023 28.2911
3   9.65274 37.6043 28.3047
3   14.3026 22.5134 28.4058
3   10.5866 44.9087 28.4096
3   15.8051 36.1116 28.5207
3   7.38058 38.0032 28.7138
3   10.24   25.2874 28.8458
3   15.582  22.7993 28.8538
3   14.2191 27.5749 28.9589
3   11.764  23.1962 28.9626
3   8.51247 37.1526 28.9814
3   13.5508 37.6219 28.9822
3   13.7431 29.8836 28.9917
3   12.2774 29.2934 28.9937
3   10.4988 43.5185 29.0304
3   10.7392 35.2654 29.0599
3   9.94731 26.6284 29.0719
3   17.2473 33.2366 29.0951
3   7.58459 40.6407 29.1453
3   13.2572 22.962  29.2166
3   12.2204 38.0504 29.3372
3   14.8365 35.4407 29.3428
3   11.6836 32.1695 29.3666
3   15.8237 32.9752 29.5087
3   11.2289 24.3963 29.5767
3   14.6261 28.7575 29.6131
3   13.7796 36.3547 29.6717
3   14.0594 31.1868 29.6751
3   13.1427 32.306  29.6956
3   3.62097 32.2203 29.7975
3   14.9183 34.0573 29.8498
3   6.62447 39.7956 29.8758
3   6.75258 38.4072 29.9208
3   11.1391 29.6266 29.9369
3   8.64575 36.1094 30.0308
3   4.00923 30.8093 30.0362
3   15.2804 23.6743 30.0405
3   15.3529 31.6096 30.0972
3   10.4737 27.3527 30.1205
3   9.91907 35.3298 30.1474
3   13.8919 23.7157 30.2079
3   11.1786 31.0214 30.2107
3   13.5465 33.4845 30.2679
3   9.98448 28.7886 30.2826
3   11.5361 37.7665 30.5111
3   12.7076 35.8229 30.6049
3   11.7215 25.1659 30.7112
3   3.86719 34.6373 30.7206
3   4.04007 33.2417 30.8013
3   12.5153 34.3557 30.8161
3   6.56635 37.1858 30.8418
3   5.21016 36.6865 30.8562
3   15.1908 28.7555 30.9187
3   7.63849 36.1435 30.9683
3   12.9252 24.5493 30.9732
3   11.2464 26.5451 31.0844
3   16.0387 27.5773 31.0941
3   10.0699 34.3084 31.1676
3   4.84792 31.1266 31.2678
3   10.5509 38.607  31.2995
3   11.4213 33.6125 31.3011
3   5.04061 35.2994 31.3109
3   15.5693 31.2019 31.4602
3   12.1252 36.7931 31.4788
3   11.3275 31.0784 31.6573
3   8.76534 34.0132 31.6871
3   7.58556 34.8555 31.7156
3   4.86269 32.4733 31.7586
3   15.0377 29.8886 31.8969
3   12.208  27.3676 31.9088
3   6.18506 34.4756 31.9255
3   5.42612 30.0697 31.9851
3   13.7572 25.313  32.0081
3   11.5088 32.3709 32.1187
3   8.76291 32.6257 32.139
3   15.4888 27.2476 32.2008
3   5.99209 33.1067 32.4241
3   10.302  37.7507 32.4404
3   13.2791 26.5547 32.4772
3   11.4198 36.7988 32.6415
3   14.4054 27.4281 33.0409
3   15.0828 29.607  33.2919
3   6.84607 32.5067 33.3968
3   5.34417 30.0791 33.4589
3   8.2108  32.3645 33.5101
3   14.2999 28.5871 33.9181
3   4.98271 31.0711 34.4381
3   5.76792 32.2744 34.607
3   12.7957 32.5013 34.8657
3   11.7117 33.4957 34.9941
3   12.6083 31.2835 35.5938
3   11.0358 33.1587 36.3605
3   11.4491 31.7897 36.4528