760
Atoms. Timestep: 0
1 46.5221 23.2272 15.7731
1 52.7918 32.5747 30.6472
1 51.4788 19.6992 21.2963
2 54.0353 19.3435 26.6945
1 66.2823 15.2787 29.3984
1 59.3501 23.6095 22.5923
1 62.2775 30.3865 14.952
1 59.2321 5.83053 0.8473
1 62.2048 14.1324 22.1854
1 60.6208 14.0538 27.5935
1 69.9146 17.9826 21.9203
1 56.0099 33.3564 16.0283
2 61.7894 18.0156 8.78694
1 61.1565 15.0462 21.3
1 61.0802 23.0227 18.4945
1 56.3946 17.9941 20.1523
1 59.8176 29.165 18.3318
1 54.7662 30.3527 22.7507
2 52.5005 15.4068 24.974
1 59.504 28.3101 13.3907
2 72.5179 16.569 25.9048
1 52.4272 35.1337 16.4328
1 60.8789 26.5557 20.2726
1 53.6776 35.0057 17.4437
1 60.9893 14.9418 28.5799
1 56.6757 21.433 23.3425
1 56.1926 26.0499 21.9805
1 44.5192 36.892 31.0644
2 64.6097 24.3873 16.1608
2 59.6006 9.03019 7.73004
1 59.7711 19.2452 24.0836
1 49.902 23.6558 16.1758
2 52.042 17.5094 22.6138
2 60.5171 26.1487 27.219
2 54.1498 35.8954 22.2609
1 45.2575 25.9681 32.8396
1 62.542 24.9033 15.75
2 71.4099 24.0524 18.0985
1 63.1599 28.9028 20.2237
1 51.2109 25.174 34.4611
1 65.1358 17.2178 20.7986
1 56.7009 27.2348 27.3385
1 53.2707 27.0426 15.8369
1 69.6025 9.35394 27.8504
2 61.0103 24.2151 27.2579
1 60.7139 29.0499 13.4053
1 50.2525 16.3183 20.381
1 68.42 20.5239 15.909
2 59.4992 22.1891 16.0897
1 61.642 20.5933 6.04378
1 62.6883 20.7194 15.0774
1 65.9396 18.8598 30.5357
2 62.0343 12.3038 16.5988
1 71.4274 22.7772 27.4905
1 47.851 13.6545 22.0148
1 59.7958 14.838 26.6335
1 62.9003 19.1018 24.7163
1 49.8621 22.7323 18.5425
1 61.2992 21.3852 14.933
1 59.7757 16.3726 14.7961
2 37.2297 34.1182 29.9216
1 71.0191 18.4643 22.5433
1 57.8179 27.6089 10.0555
2 63.3491 26.3685 29.0456
2 50.2524 17.9137 23.5933
1 72.1578 24.3596 16.2148
1 61.4204 2.33022 -1.319
1 63.1632 25.957 27.0828
1 55.066 23.0245 24.5651
1 70.2263 24.3953 13.2082
1 52.1848 29.852 18.921
1 54.9007 34.3271 28.8218
1 68.1789 18.8709 20.2217
1 55.4864 38.141 17.6928
1 66.4232 16.6587 29.6982
1 58.6068 24.9261 22.4028
2 53.3303 35.659 29.1935
1 63.7541 22.1702 18.3843
1 65.2357 19.8222 31.1886
1 46.3293 22.9836 14.4817
1 61.5999 10.7817 7.6936
1 57.972 21.5399 33.7376
2 51.2177 22.4086 24.496
1 62.9097 13.6905 9.65441
1 64.9068 21.0057 16.5387
1 51.755 29.131 30.7962
1 45.8691 22.6251 13.1703
2 58.7101 27.5996 9.45544
1 66.5171 20.069 24.993
1 66.0626 9.52247 26.9544
2 60.2783 14.1363 32.0397
1 60.6428 20.1175 26.633
2 54.3532 18.3495 22.7586
1 39.7745 9.54138 23.7868
2 50.2383 35.0924 17.1497
2 41.9813 33 25.9648
1 49.6286 40.5391 33.1163
2 64.8006 12.9156 13.6106
2 70.2161 10.02 22.1226
1 57.7309 20.0481 17.9373
1 49.2378 26.0285 33.2905
2 69.9429 23.3313 33.6268
1 70.36 24.0594 33.0256
1 70.3209 11.744 23.1957
1 56.2998 23.7808 22.6209
1 67.106 18.104 20.864
1 61.0627 30.2322 14.0697
2 43.2837 23.8335 30.9887
1 67.4702 20.7812 24.2705
1 38.6758 32.8176 28.9681
2 53.8812 14.7839 25.8611
1 64.4051 15.2745 22.317
2 67.2064 24.6725 23.3093
1 49.2483 23.4915 17.358
1 70.2714 20.8093 17.6501
2 47.0026 19.8877 23.167
1 61.2738 24.8986 13.2535
2 55.7045 27.8427 14.0609
2 72.8649 18.693 21.2412
1 61.7048 18.3941 28.1014
1 63.0588 23.7834 25.7898
1 53.5265 33.689 22.4292
1 57.1154 22.5927 22.5987
1 59.0338 18.0328 20.4161
2 48.2922 24.1305 18.7335
2 40.1866 29.6971 24.798
1 59.9563 28.3219 25.1119
1 45.7823 39.5549 33.0788
1 62.9274 26.8044 28.2515
1 60.471 25.802 13.1618
1 58.9797 22.884 27.2472
1 68.151 21.6657 23.4567
1 44.8691 24.7167 32.3117
2 61.7803 28.796 13.201
2 56.1209 17.68 14.3738
1 72.8141 18.6876 24.2218
2 60.0861 20.4854 16.7938
1 69.0314 12.7375 23.5833
1 64.7027 27.411 17.0793
1 61.1456 29.4804 18.8322
1 68.1702 26.7946 20.5247
2 61.999 14.3275 23.1249
1 51.8641 18.1946 24.6448
1 67.2022 22.1731 22.4163
1 67.3514 17.586 29.0414
1 69.8013 12.7781 26.4673
2 59.5053 24.5646 18.2705
1 57.9542 16.6748 9.1539
2 69.829 18.2828 28.1661
1 52.0983 26.1618 34.2491
1 60.7155 16.9205 16.9264
1 52.4629 22.3159 18.3916
1 60.5067 16.1159 19.366
1 46.627 13.2754 21.2669
1 70.3502 13.8364 25.7327
1 51.5905 18.6042 20.4671
1 68.2682 21.3172 29.1987
2 42.8474 25.3034 31.7325
1 68.838 22.5067 28.6952
1 59.5596 19.098 19.583
2 62.648 29.4952 15.4202
1 63.2724 25.0574 26.3173
1 58.54 22.3524 22.2736
1 69.2459 24.9061 32.9018
1 68.2958 25.5457 32.5005
1 60.6803 15.4278 25.3466
2 57.1566 17.3987 31.7923
2 62.4799 22.22 27.4275
1 59.9209 16.8629 20.4631
1 62.7761 21.9098 17.2838
2 56.2259 40.3491 17.4011
1 50.1268 26.7149 32.4486
2 59.3757 30.1915 18.0355
1 53.4227 27.7846 20.293
1 54.1331 27.6654 15.2186
1 54.5799 18.4573 18.6807
1 46.6119 23.4608 17.037
1 63.4813 14.5426 21.4499
1 62.0805 14.3881 34.7738
1 60.4827 21.4949 16.2631
1 60.6444 16.4312 30.5903
1 61.4652 8.52747 1.5106
1 72.2371 11.6874 29.3624
1 66.8481 26.6058 22.8242
2 69.3829 14.2784 29.1071
1 62.3773 14.5006 19.0926
1 57.3223 24.7899 19.1252
1 71.324 11.1592 28.4068
2 53.7609 25.5683 18.1491
2 67.3717 18.3579 14.982
2 54.5884 18.4346 7.10039
1 65.4732 -0.302875 -3.10531
2 47.79 25.3369 17.4312
2 61.2732 8.62963 3.94649
2 64.5217 13.5756 29.7299
2 59.5563 27.6475 30.3415
1 59.4093 26.1756 22.4031
1 50.0836 17.1698 26.4944
2 58.2859 14.8038 14.6861
1 69.6237 13.9033 24.3709
1 62.6833 20.33 5.53085
1 71.6166 12.2227 30.6369
2 54.6587 24.7347 23.2125
1 52.6116 17.2563 26.6733
1 61.5455 23.3309 24.2966
1 68.2074 19.7087 19.0089
1 51.5551 32.2327 18.2862
2 53.3953 28.644 22.8251
1 66.4743 10.6575 27.3231
1 58.88 29.9516 28.349
2 67.7227 14.5508 17.7003
1 54.8784 23.6969 23.1287
2 61.841 9.63942 -0.227458
1 65.6348 17.4048 30.6573
1 51.2256 19.5791 22.6792
2 71.7072 22.3643 26.534
1 64.7252 0.090881 -2.09153
1 57.207 24.9525 22.3278
2 61.0609 27.2509 23.7414
1 70.3525 12.4654 31.0889
2 61.5692 15.5571 25.944
2 54.3123 20.8924 16.5357
1 63.3465 15.4057 11.3526
1 57.0421 18.1083 15.0271
2 68.5947 9.20225 27.3023
1 50.4271 20.7019 23.3958
2 54.0449 23.1822 24.9565
2 61.7523 14.6767 17.14
1 62.3752 17.8524 10.9509
1 45.4945 12.8892 20.6544
1 59.4555 8.79538 5.63262
1 62.8412 24.0779 14.5533
1 62.8067 21.2809 12.5248
1 59.4672 19.4801 6.61722
1 53.9221 17.8617 19.795
1 54.8358 17.5897 22.1722
1 44.5488 12.2816 19.5099
1 66.2938 28.4336 18.249
2 69.6581 23.1849 24.2442
1 69.5588 22.329 23.4803
1 55.2337 28.0804 23.0226
1 59.4385 19.4605 28.7961
1 61.3909 22.3843 17.2595
2 52.5004 34.1839 24.2974
1 60.8572 0.806927 -1.23891
2 72.5384 20.0731 19.4461
1 62.3074 19.2686 19.4333
2 55.9398 39.4239 20.5651
1 56.1239 39.4889 18.1288
1 52.9708 27.1884 34.1725
1 59.5633 26.8069 29.582
2 72.4437 11.6984 23.7298
1 54.619 29.7747 32.318
1 58.7609 31.4046 14.7109
1 63.8424 15.402 29.1246
1 64.1197 13.1469 11.8562
2 71.0195 20.3594 12.2437
1 69.6445 20.1787 18.8023
1 54.1122 19.4392 25.5833
1 54.3814 24.942 18.7778
1 62.6428 18.9261 11.8892
1 50.2221 27.537 31.5701
1 65.6527 20.2584 18.7002
1 58.7825 21.6121 21.1265
2 58.3052 21.9754 17.0741
2 63.5959 20.5067 23.3778
2 66.9982 15.1424 23.2105
1 53.0409 29.9158 28.6514
2 66.0534 28.5716 22.5034
1 48.9162 24.1938 34.941
1 66.6546 28.0799 19.3358
2 37.8501 32.996 31.1119
1 58.0931 17.0118 31.3179
2 41.7869 30.253 25.2315
2 56.6364 19.7472 30.9988
1 61.44 22.2721 25.2921
1 57.0643 30.9437 29.9781
1 58.8839 27.1874 23.3145
1 71.5648 21.5729 17.6028
2 57.5056 17.2741 21.8205
1 72.2282 22.8537 28.5817
2 46.3931 9.12196 19.8507
2 68.5125 12.9623 22.6155
1 59.915 29.3643 27.5301
1 44.367 40.1823 35.0403
1 63.5418 23.0909 32.1439
2 59.014 14.2209 26.3336
1 63.7946 15.5401 23.6547
1 57.5056 26.1675 27.9395
2 45.4015 23.9398 32.3007
2 63.1328 29.9232 20.3975
1 49.5235 15.3403 20.6914
2 56.6817 22.7413 34.7803
1 68.8825 17.102 22.5137
2 64.7732 26.7843 18.0165
1 58.1053 30.5625 29.0699
2 65.4535 20.5374 12.5269
1 69.0031 20.8278 13.3456
1 55.0596 17.8697 20.7532
2 43.5477 25.3157 30.2113
1 51.127 17.3237 19.9394
1 63.3544 15.2194 34.5362
1 61.2677 22.0457 33.0838
1 41.4459 33.2925 26.7212
1 72.7727 23.105 29.8139
1 61.5962 27.0688 19.1757
2 54.2246 18.7293 17.6207
1 62.1964 11.2161 8.77157
1 44.0061 36.445 29.7963
1 64.4674 20.6204 31.741
2 55.5178 15.612 7.28441
1 50.7524 21.3858 24.7066
1 55.3135 29.3376 23.5678
1 60.3834 8.14188 3.70442
2 61.4049 30.5799 18.8672
1 64.6975 14.5326 19.2236
1 49.8663 21.7271 13.6905
2 53.6682 27.0975 34.9385
1 62.9256 12.1466 9.63286
1 54.4135 31.7156 23.0758
2 54.6501 34.1181 27.7259
1 56.7039 30.6531 17.2115
1 53.3478 34.3886 23.7836
2 69.5443 9.06922 28.9902
1 55.8357 16.5568 7.46942
1 45.5994 21.2102 12.8447
1 68.7797 16.493 23.9101
1 60.5278 14.9991 32.5876
1 65.2933 24.6669 31.2026
2 56.822 27.4561 9.73653
1 72.6836 22.2445 17.5035
2 65.394 29.5963 16.5317
1 58.5745 26.4659 28.7608
1 51.6402 30.9122 18.707
2 53.822 33.9966 17.7449
1 52.3976 34.9342 14.9612
2 57.7812 16.9624 5.21419
1 55.6395 29.4333 26.1264
1 58.6258 22.8259 19.0772
1 57.1383 7.41406 2.93262
1 67.2073 26.2866 31.8404
1 52.4153 28.7963 32.0213
1 57.0152 16.6408 8.39438
1 53.6504 29.7848 27.6697
1 52.2237 36.2097 31.6352
2 65.0232 17.651 33.3316
1 56.2033 21.8628 17.3783
1 60.2271 17.3689 9.98222
2 57.9588 29.6196 20.1555
1 55.6031 33.056 29.3185
1 48.2554 13.9773 24.8183
1 57.2622 23.3696 18.9984
1 54.6418 23.4642 18.4722
1 61.2331 22.6505 11.3001
1 57.5938 25.0932 27.018
2 60.3379 30.467 25.5449
1 61.8713 27.7454 28.0272
1 70.0814 22.9812 28.0816
2 55.4822 35.4129 28.7988
1 62.6453 18.4866 25.965
1 59.3077 22.5786 37.3184
1 60.6094 3.3879 -1.37245
1 71.8846 23.4877 31.0278
2 62.4977 25.2551 24.1343
1 70.3624 10.6289 27.6035
1 57.3658 31.5824 14.9646
1 64.0241 28.0342 20.8925
2 57.3471 20.7618 15.7936
1 70.4956 18.4819 25.0337
1 40.3689 32.4245 26.923
1 62.4556 22.6401 26.2757
2 61.6943 14.1233 35.6879
2 62.1902 2.43379 -0.649317
2 57.2859 20.5133 23.4572
1 58.8349 15.6255 14.1917
2 64.1418 17.61 20.8174
2 64.5862 15.618 26.6387
1 63.6866 24.185 15.633
1 48.3726 21.4598 33.3349
1 58.7315 16.0996 12.7519
1 51.1485 35.4737 32.0946
1 69.575 23.4676 12.322
1 66.3714 22.5803 21.6468
1 59.6157 9.5126 6.75318
1 58.9006 24.2745 27.1589
1 59.3457 21.4712 7.33098
1 63.5381 14.3945 19.9782
1 67.2613 20.0827 16.7331
1 64.9282 20.3974 13.5605
1 62.2061 23.831 13.3792
2 68.5844 26.3129 21.3013
1 69.5229 22.114 12.7858
1 54.8489 17.4841 7.25792
1 64.5775 12.4576 12.7287
2 62.3511 8.99881 2.1197
1 59.1075 20.5333 33.9551
2 53.4142 35.4694 18.3576
1 67.1909 27.7463 20.6611
1 62.5176 22.1164 32.2739
2 53.873 29.4921 20.8425
1 52.9201 14.1108 28.8758
1 68.3484 13.7687 28.6669
1 60.5155 18.3979 28.9194
1 71.1252 13.3713 31.3064
1 59.0502 18.5442 5.96997
2 68.864 26.9591 19.6022
1 56.1776 29.2177 24.7721
2 58.5367 0.692989 -1.76785
1 61.1444 9.10489 0.330176
1 63.7208 21.6563 32.4588
2 61.3506 17.3645 33.7337
2 61.158 13.2661 27.5922
1 49.7359 25.1517 34.3311
1 70.0883 20.8498 12.5359
1 52.2451 34.851 31.4289
2 63.6552 23.8741 23.6154
1 59.3642 6.72827 1.8123
1 61.7915 -0.011254 -0.447291
1 53.5017 15.0545 24.8687
2 70.3111 21.4953 15.6405
1 58.1376 27.2426 18.9684
1 66.1123 25.5493 31.403
1 70.7388 10.9503 22.4231
1 61.0049 19.2102 19.4799
1 70.3174 19.6233 19.9441
1 64.2661 23.0858 20.3584
2 61.2355 22.4814 14.7605
1 47.9185 13.5714 23.5549
1 50.9828 21.7951 13.2508
1 62.7628 17.3804 28.0431
2 63.2574 11.2884 10.2981
1 67.233 16.5942 18.0097
1 56.0468 23.1034 18.3239
1 71.8111 19.8111 20.2277
2 70.3123 8.51544 27.4998
1 59.8516 18.1698 23.5042
2 57.8835 29.7578 31.6894
1 57.1805 19.947 30.1607
1 61.2775 14.898 7.8541
1 57.6286 25.9434 19.29
1 52.9189 33.9747 30.3823
1 58.7101 16.4628 11.6068
2 57.7731 24.2116 8.61818
1 66.8185 17.9475 26.4568
1 47.6725 20.4335 22.5972
1 46.5502 25.9625 33.0865
1 56.1666 39.7192 19.4483
1 62.0574 28.5097 19.2969
1 63.4815 21.2723 16.2209
1 63.4165 17.4732 26.6734
2 63.7201 27.8075 16.901
1 42.0389 34.3312 27.4866
1 56.0423 18.359 18.7562
1 59.8752 29.5057 26.0255
1 56.0214 34.8153 16.5128
2 47.6601 23.2969 36.2174
1 53.8395 27.6477 22.7248
2 63.5468 20.0313 5.15027
1 53.7918 26.0991 26.661
1 54.8203 21.5674 17.2004
2 46.6784 22.4458 34.0805
1 60.63 21.0097 25.5112
1 54.8786 25.5224 19.825
1 56.9502 30.3432 18.328
1 71.3164 18.5793 23.957
1 54.3404 15.6429 23.8471
2 50.431 24.4548 14.3376
1 52.5577 36.0544 15.2616
1 69.0972 18.2144 27.3716
1 71.4533 14.6668 26.0677
2 68.4876 17.17 24.7592
2 68.2108 17.1756 18.0208
2 67.336 19.0266 13.27
1 67.1795 19.2269 14.2639
2 44.4687 26.7961 32.8752
1 50.7538 22.3446 14.5193
1 66.5619 18.882 25.7285
1 58.719 20.137 19.0505
1 62.0466 14.3334 8.58461
1 39.52 32.5247 28.1845
1 59.5037 23.2745 9.45022
1 37.5382 33.0965 30.0027
2 51.5332 20.7238 25.2
1 54.3055 30.0267 26.4311
1 65.1797 22.8838 20.9647
1 58.9625 21.4483 19.608
2 65.3536 -1.30498 -3.70485
1 60.6564 17.5931 32.8805
1 59.8341 4.62315 -1.38982
1 59.1352 17.9133 33.3083
1 49.1252 14.1232 24.0261
1 67.277 18.8417 29.6973
1 59.6684 0.659661 -1.5929
2 57.726 33.715 14.5082
1 52.8971 18.8184 25.0631
2 56.9686 35.3597 16.4807
1 53.5234 15.4224 28.6216
1 66.9416 15.2113 17.9451
1 60.4341 7.80903 2.30304
2 70.2406 21.4962 23.7908
1 67.0406 11.7329 28.0742
2 57.0292 23.0041 32.7651
1 64.8032 27.2564 21.5388
2 49.9037 21.4903 25.4168
1 65.7908 28.6513 16.9011
1 61.8635 26.2526 17.9725
2 63.1639 30.8083 14.5348
1 69.471 18.8272 20.7816
1 51.2397 34.5201 17.0355
1 55.0478 16.2483 22.7654
1 45.2391 11.9973 18.6284
2 61.0743 -0.91083 -0.333847
1 60.8213 10.3475 6.68712
1 54.8143 29.9389 21.3212
2 52.1631 27.6118 18.7992
2 60.7389 21.1114 14.0138
1 52.0614 26.4061 24.5111
1 59.5853 20.2777 27.664
2 68.1983 12.4308 24.1809
2 58.7639 16.2299 31.6316
1 67.8652 20.0756 29.4125
1 57.6589 17.7369 20.8686
1 60.3647 15.6331 6.82954
1 60.1253 16.7758 22.9492
2 50.1227 41.511 33.2081
1 57.0085 18.4905 16.3197
2 62.7934 19.0582 22.5407
1 62.1418 25.636 16.966
1 53.3516 35.1407 22.2902
1 63.0832 19.5898 23.5576
2 58.4146 17.1366 33.2815
2 45.066 12.1282 17.5235
1 57.4901 27.612 23.5514
1 53.5307 34.6278 29.3911
1 56.3407 32.1488 29.6759
1 61.2898 14.9284 19.8725
2 57.8816 17.5575 14.7039
2 38.8918 31.1972 26.259
2 52.7057 26.7559 16.5043
1 64.9288 19.2205 19.4827
1 67.005 20.0477 18.1206
1 38.8968 9.3252 24.6545
2 68.6978 22.6306 26.436
1 57.9915 27.6176 11.3145
1 55.1241 26.151 21.0298
1 59.6508 16.3314 6.14146
1 56.1092 28.3545 26.8386
1 56.8823 18.9726 17.6579
1 61.7384 18.1677 15.0594
1 53.7481 32.3976 22.0128
2 51.4563 20.6657 20.9166
1 71.2186 26.8214 13.5691
1 44.5556 39.3362 33.8413
2 66.3076 -0.06348 -3.19464
1 51.3294 18.21 23.1518
1 71.004 25.3247 13.8867
1 54.8895 20.6116 25.0606
1 54.5693 23.9468 28.0389
1 40.7392 30.5727 25.2492
1 58.2761 19.1655 29.5764
1 54.0492 31.3607 24.4817
2 54.2693 34.4853 24.3708
2 61.1925 10.3944 5.74203
2 53.7472 32.0928 20.9231
1 50.8961 38.2095 32.72
2 63.8888 15.4208 35.4341
1 43.7842 40.1556 36.3628
1 60.091 27.7385 23.8912
1 64.1716 16.3915 26.1321
1 54.1153 27.2059 21.241
1 55.5133 28.2978 14.844
2 46.5571 20.8829 20.694
1 71.6966 24.84 15.2058
1 56.9649 32.9725 15.1033
2 36.8925 32.4181 30.268
2 61.4844 23.6116 20.4817
1 59.194 8.00561 4.46747
1 53.0381 16.3965 27.6982
2 60.4345 26.2764 29.6248
1 55.6285 21.5279 24.296
1 71.4413 11.2288 23.6439
1 57.022 30.2651 31.2934
2 61.0879 18.5528 32.5313
1 51.2639 22.4659 18.517
2 55.4444 32.6303 16.5724
2 61.6834 30.9634 15.6997
2 65.5363 20.3052 25.1762
1 61.8093 12.58 17.5751
1 42.5742 11.0051 20.8405
1 47.7838 25.9374 33.0364
1 53.3279 26.6964 23.8963
2 51.7809 24.2295 34.5854
1 53.1989 26.2331 25.2654
1 64.3037 23.6602 31.1051
2 66.4638 28.3608 16.2182
1 63.1265 0.02646 -0.816451
2 66.4116 16.9983 18.5544
1 72.532 15.538 26.2651
1 47.4279 21.0069 21.3969
1 62.0837 22.5308 12.4833
1 65.8299 18.1212 20.1246
2 60.6159 12.5133 17.7426
1 55.9873 30.0522 20.549
1 56.0082 29.4144 15.1469
1 55.8832 23.866 25.4539
1 55.1274 23.0238 28.6414
1 60.3934 16.0125 24.1966
1 60.6533 16.3335 32.0544
1 48.2957 21.5549 20.3401
1 57.1234 30.1805 19.8192
2 49.7804 28.6871 29.9051
1 59.1159 21.6684 36.4846
1 48.9525 22.1023 19.4823
1 43.2992 11.5953 20.1412
1 56.6547 21.1094 29.5741
1 65.6473 14.8608 18.5557
1 62.8065 24.2142 24.2656
1 60.4219 16.1661 21.6339
2 67.7632 16.4372 27.3758
1 63.6156 20.836 13.7704
1 61.9852 23.4466 19.5067
2 63.4971 14.2916 17.3286
1 67.5898 16.9687 21.7945
2 61.9248 20.5296 10.7423
2 57.3345 21.7632 7.51025
1 47.6799 22.1605 34.123
2 64.5054 26.8856 16.0896
1 63.6569 19.4477 19.4009
2 59.1253 4.73197 -2.12766
1 58.9874 28.038 18.6548
1 56.5606 30.5732 15.6735
1 51.2745 33.3672 17.6972
2 62.2991 11.8334 18.1812
2 61.8159 13.1043 22.2158
1 60.2876 20.6488 6.75282
1 70.1466 27.4116 13.1934
1 54.9578 35.6079 16.8459
2 55.6804 15.3936 22.3412
1 58.7238 17.2745 5.56497
2 59.984 21.285 23.5649
2 66.4981 12.4957 28.7038
1 45.1074 38.2238 33.2827
1 51.2569 17.4408 25.8517
1 62.416 20.2713 11.5689
1 41.4728 10.462 21.7248
1 59.9281 31.0694 14.4332
1 72.1031 19.3723 21.6783
1 49.0047 20.6635 23.1077
1 68.2595 20.2587 14.4993
1 58.8949 20.5836 35.563
1 72.439 23.8443 17.6163
1 57.8203 7.63795 3.91169
1 58.6536 28.868 25.4036
1 67.7875 17.4093 27.638
1 46.8597 9.98483 19.6173
1 64.1018 0.721831 -1.15813
1 63.5044 14.1074 10.9152
2 45.8358 23.1778 17.8092
1 60.4404 22.9113 10.409
1 59.6401 5.19535 -0.182581
1 61.3674 15.7964 29.5072
2 70.0287 22.5775 22.4184
1 50.3335 39.2756 32.8236
2 64.66 23.0186 30.1624
2 59.3463 15.8045 27.107
1 58.9853 21.6602 27.4533
1 61.2845 14.6442 33.7101
1 42.4445 35.2623 28.1783
2 53.9834 23.2252 22.6263
1 53.2365 29.5824 32.8093
1 59.4725 26.9206 13.3558
2 72.4148 19.9785 22.5461
1 44.7791 37.3833 32.1516
1 63.8589 16.0745 33.5884
1 62.8711 16.6089 11.3363
1 53.3565 14.1693 27.9131
2 67.9068 26.4201 30.9343
1 56.5678 24.5164 26.2164
1 69.0376 22.9858 27.3636
1 65.9161 20.0485 14.5208
1 46.3485 21.7555 12.1676
1 64.4781 16.9937 32.797
2 52.4534 35.5392 22.1222
1 53.7134 31.0788 25.6174
1 52.6422 28.4941 19.3435
2 53.7487 27.0111 27.3172
1 60.0102 17.5695 29.8935
1 66.8014 15.9399 22.3887
1 64.0194 15.9995 24.773
1 55.8048 30.0551 31.8187
1 43.2534 40.8242 35.5708
1 66.0512 20.4962 15.9158
1 59.0854 19.1443 33.4806
1 62.4203 14.0862 17.6323
1 58.4442 27.6326 12.599
1 60.4417 23.5817 23.4368
1 67.1907 25.6955 23.5261
1 60.7545 17.1546 15.5109
2 68.9676 23.7411 11.4293
1 52.7521 31.3916 30.3521
1 68.2183 12.4496 28.0124
1 54.1424 25.0449 27.4631
1 52.8582 28.3689 33.3791
1 48.2069 40.3881 33.2142
1 56.2504 27.1875 22.7917
1 58.6273 23.4254 8.40827
2 60.3075 8.70566 -0.378348
1 64.8167 14.5682 29.4974
1 69.3949 11.7815 27.2186
1 40.7132 10.0722 22.5463
1 57.4906 28.5921 24.6666
1 67.3772 14.5737 28.9122
1 59.0426 16.9764 10.2927
1 39.9501 31.2505 26.1728
1 61.5292 17.6655 9.73229
1 64.8478 21.257 17.9669
1 62.7436 16.2646 28.8734
1 48.1787 23.1852 35.2631
1 55.3216 37.0863 17.1641
1 55.9696 22.0947 29.1944
1 58.6441 17.9319 30.3693
1 50.5675 23.735 15.0114
1 48.6991 14.5186 21.3245
1 60.4771 16.5172 17.9972
1 60.3947 21.4561 33.5979
1 60.2348 26.3727 21.2709
2 64.5966 26.2601 22.0419
1 47.9039 24.2483 17.644
1 52.4615 17.6225 19.9463
1 65.5595 16.0243 21.7696
1 64.5194 16.9539 31.3671
1 46.0755 10.8398 19.2411
1 52.4367 30.0838 29.8955
2 51.098 26.8528 24.4065
1 43.3471 36.1226 28.8912
1 47.0207 40.11 33.1715
1 58.133 6.79775 2.26531
1 62.3911 19.1835 14.869
1 71.2513 23.6977 32.0138
1 50.5062 28.4105 30.4973
2 63.9331 16.1333 31.0591
1 60.9514 28.5359 27.8257
1 57.5045 21.2342 16.9004
1 69.6426 21.1017 16.4011
1 66.2846 27.6997 21.9048
1 69.7326 18.4173 26.1747
2 60.1424 25.1616 25.8649
1 60.184 24.996 26.9231
1 63.3311 23.0971 19.3554
1 56.8532 22.4247 33.6629
1 53.8972 22.312 18.1223
1 69.279 15.236 24.2814
1 61.539 19.0669 26.8294
1 58.33 22.1215 7.71405
1 59.6633 23.587 18.5294
1 51.2364 36.8782 32.4872
1 43.7504 24.8203 31.2928
1 59.9207 20.6168 24.3486
2 62.9939 18.7296 12.8843
1 72.7278 27.3387 13.5116
760
Atoms. Timestep: 40000
1 44.0613 19.7813 18.3522
1 53.7755 32.9329 30.4756
1 52.3069 16.7343 22.5167
2 56.1123 17.7349 24.0655
1 66.7808 18.3827 27.2163
1 57.4185 23.4838 20.1679
1 55.6164 26.8843 12.4426
1 69.3878 4.93717 19.0588
1 62.3919 14.4631 21.1537
1 56.5957 14.569 24.9887
1 68.0921 20.927 21.5974
1 50.0063 30.8186 11.6162
2 64.7026 17.7707 7.87437
1 61.5425 14.8298 19.8597
1 58.8141 22.4381 16.4732
1 55.9459 15.5522 18.545
1 54.042 29.618 16.582
1 52.9452 29.4437 21.2628
2 54.9549 9.60981 19.7704
1 54.9288 26.2817 9.2607
2 72.2491 21.8625 26.2696
1 47.2161 28.025 13.7751
1 57.2718 26.3929 17.5288
1 46.7029 29.507 13.1758
1 57.4594 14.955 25.9398
1 55.7035 20.4638 20.7872
1 54.3257 25.3104 20.8568
1 59.4354 34.9602 42.6542
2 61.5857 24.4038 14.7004
2 71.8549 10.8128 14.8198
1 59.1054 18.7568 21.4114
1 47.2059 19.9437 16.9259
2 50.8105 18.2628 25.0075
2 59.3725 25.6211 25.1702
2 55.7796 33.0441 21.6848
1 44.0504 26.4561 29.7005
1 59.5846 25.4167 14.9232
2 71.0658 26.7468 16.8357
1 57.5733 30.5385 15.9678
1 48.0247 28.4271 34.3698
1 64.2046 18.098 19.6234
1 54.4432 26.5466 25.5714
1 51.22 25.0662 15.7835
1 67.3772 14.9686 21.3695
2 58.0213 26.7236 25.5669
1 54.7252 27.5186 9.95055
1 50.3455 16.3389 18.1306
1 67.008 21.3277 15.482
2 58.1992 22.08 13.3045
1 65.2151 23.6416 8.53867
1 61.1639 19.9453 14.6162
1 66.6321 20.7378 30.0817
2 65.2828 16.6033 15.7369
1 69.9663 23.3527 34.9497
1 47.0872 16.3138 15.8822
1 57.1086 14.6195 23.5017
1 61.4821 19.291 23.3511
1 48.3754 20.2076 19.0113
1 58.8987 19.7649 13.6871
1 59.5369 16.9744 12.5621
2 60.3521 42.9213 42.4186
1 69.3865 21.3158 22.0673
1 54.3944 25.5964 6.65372
2 62.6941 27.5442 26.3654
2 51.6788 19.446 24.084
1 71.4095 25.6011 14.991
1 70.7907 1.09142 20.4843
1 61.5145 25.9969 24.9902
1 54.0257 21.4632 22.7531
1 71.589 21.9297 12.1094
1 48.6223 24.5774 18.7124
1 55.4885 34.2711 28.5598
1 66.2995 21.2444 19.8482
1 47.1305 32.0837 10.3082
1 67.2834 19.3732 27.9714
1 56.5889 24.6106 20.6092
2 55.7215 35.674 30.3727
1 61.6234 21.5837 16.4808
1 65.4676 20.6384 30.7807
1 43.3231 20.7916 18.983
1 69.4636 12.4784 14.0128
1 56.975 18.5515 33.5951
2 49.1545 17.7149 20.3286
1 68.1544 15.329 11.7227
1 63.4762 20.497 15.3208
1 50.9939 30.521 29.9882
1 42.4223 21.7132 19.5056
2 54.3912 24.6203 6.26859
1 64.6371 21.1384 25.1098
1 63.2077 13.9165 25.9076
2 59.4443 17.649 28.3128
1 58.5053 20.0657 24.1998
2 53.7938 13.2304 20.1374
1 53.3964 19.6981 10.0225
2 48.2767 28.9173 15.7157
2 56.8392 40.0574 47.0096
1 56.5682 30.3251 37.7369
2 65.8004 12.5559 14.2136
2 72.4384 17.4127 22.662
1 56.5161 18.7699 16.7758
1 47.1606 27.9971 31.8929
2 67.0287 16.7558 35.9387
1 66.6719 17.7825 35.9132
1 71.003 16.6753 24.3516
1 54.7385 22.8087 20.8011
1 65.5478 20.1062 20.3414
1 54.8091 27.588 11.3012
2 44.1535 23.2104 28.0712
1 64.8636 21.8841 24.1328
1 58.7543 42.765 43.9219
2 55.4709 9.53735 21.6194
1 64.1332 16.2414 21.4326
2 59.7295 27.749 11.6233
1 47.1331 19.8991 18.3692
1 68.0381 23.1445 17.0103
2 49.1107 20.5116 24.887
1 58.8021 23.6749 11.5295
2 53.5616 26.4448 14.1144
2 71.5145 21.2965 21.1799
1 59.1228 18.1377 25.7806
1 60.3479 23.9837 23.653
1 53.8639 33.2663 21.2658
1 55.6765 21.7819 20.2258
1 58.4382 16.4807 18.4423
2 46.6071 17.6344 18.2088
2 55.9499 44.1628 47.8212
1 57.7694 28.7156 22.6658
1 58.3893 31.9317 40.9161
1 61.8845 27.3896 25.6866
1 57.7562 23.8627 10.9579
1 57.6179 23.269 25.2793
1 64.7022 22.8435 23.0966
1 43.8465 25.1369 29.3042
2 53.7562 28.0567 9.59429
2 53.8918 17.458 13.7109
1 69.8527 22.3489 24.3708
2 57.3784 21.2905 14.2051
1 69.7449 16.6719 25.01
1 59.5493 33.9708 17.5589
1 55.0895 30.0326 15.7815
1 62.3319 30.9383 13.0957
2 62.0496 14.6423 22.1402
1 53.0516 18.2689 25.0066
1 63.8053 22.7768 21.96
1 68.3012 21.6504 28.5315
1 67.3886 17.1674 23.9898
2 56.7297 23.2255 15.7385
1 60.942 18.0242 6.52965
2 69.6011 23.1286 29.1263
1 49.3156 28.7307 33.9549
1 60.308 16.2417 15.2477
1 50.9795 19.9529 18.3414
1 60.816 15.7386 17.7064
1 47.1567 16.8626 14.6266
1 70.3232 19.0526 25.507
1 52.3605 16.4509 21.1221
1 67.8123 23.8416 31.1659
2 45.6911 24.1817 28.7593
1 68.3675 24.7084 32.1599
1 58.5928 17.7451 18.027
2 56.705 26.9773 12.0825
1 61.0835 25.1391 24.2543
1 56.6456 22.3427 19.1909
1 65.2637 17.8937 35.9205
1 64.0858 18.2106 36.2065
1 58.6725 14.7671 23.2979
2 55.7466 17.0178 29.5987
2 59.83 22.6083 24.9566
1 59.8034 15.9424 18.6586
1 60.8084 21.2683 15.3724
2 49.3091 32.4666 8.6671
1 47.9808 28.8369 31.0278
2 53.1705 30.0778 15.987
1 50.5917 24.6559 20.2306
1 51.5572 25.6106 14.7907
1 53.9985 16.8062 17.8962
1 44.7925 18.6842 18.1431
1 63.6596 15.1284 20.7632
1 61.7472 15.8748 29.7219
1 58.516 21.2366 14.1749
1 57.7818 16.2799 27.8822
1 72.1219 6.25511 19.0598
1 69.5127 13.473 23.3264
1 60.3627 28.6231 13.5861
2 64.9176 16.1494 26.7545
1 63.323 14.8791 18.2502
1 54.7117 24.5095 17.4601
1 68.7563 14.4285 23.4088
2 51.503 23.2371 17.8602
2 66.786 18.1142 15.1378
2 59.1886 18.101 3.43244
1 74.1602 6.76696 23.2761
2 46.3649 18.4881 19.6973
2 72.3897 8.53729 17.5751
2 61.8559 13.1093 27.2559
2 54.3289 24.9101 28.7186
1 56.8165 25.9027 20.1706
1 52.5639 17.8957 27.656
2 58.0264 16.1575 11.3012
1 69.2663 18.3511 24.9833
1 64.7128 24.5864 9.10544
1 70.1185 12.1066 23.3183
2 52.8842 22.702 21.8241
1 52.7447 17.2199 29.0057
1 59.5091 22.9748 21.7765
1 66.3355 21.5629 18.4006
1 48.2213 26.0871 16.716
2 51.4844 27.3337 20.9822
1 64.3911 14.0478 25.6301
1 57.3749 29.2932 26.3871
2 68.4186 13.5812 18.7329
1 53.5197 22.0805 21.3201
2 73.4022 7.67235 18.9414
1 66.836 19.3864 29.365
1 51.2413 17.7528 23.0128
2 70.8134 23.4732 35.5404
1 74.3463 5.41872 23.3027
1 55.2702 24.1708 20.9593
2 59.0035 27.7426 21.1474
1 70.9209 11.0469 22.7211
2 59.4505 14.247 24.0161
2 53.5895 18.6412 16.8765
1 65.9446 16.3132 11.5907
1 54.9644 17.1117 14.0184
2 67.6613 15.9463 20.9774
1 50.0505 18.1136 22.4566
2 53.2719 20.9066 23.3789
2 64.9162 14.3322 16.9914
1 64.1248 17.4164 10.183
1 47.0493 17.2899 13.4621
1 70.5495 9.65761 16.0931
1 60.2287 23.7753 13.3057
1 62.652 20.3015 11.546
1 66.007 21.3685 7.79169
1 53.7523 16.0124 19.0457
1 54.7103 13.6101 19.7951
1 47.5783 17.6008 12.1047
1 60.2127 32.7904 15.528
2 66.3594 22.9307 22.3183
1 65.8468 23.8089 22.9437
1 53.1566 27.0753 22.1529
1 57.3898 19.7528 26.4271
1 59.3845 21.7749 15.2939
2 51.6438 33.5226 21.48
1 71.7929 1.17731 21.4408
2 70.7436 22.1967 18.901
1 60.9586 18.8661 18.6348
2 47.3187 34.2885 9.54759
1 48.4472 32.4697 9.20545
1 50.6719 28.9144 33.7066
1 55.3156 24.6351 28.412
2 71.511 14.9905 22.441
1 53.7411 29.7091 31.29
1 52.9409 29.3496 12.336
1 60.8891 14.8641 26.6258
1 66.5725 14.2564 13.1922
2 68.6666 22.8569 13.8402
1 67.6468 22.2456 18.1066
1 55.3032 18.2871 23.7924
1 52.3506 23.0592 18.3932
1 63.262 18.0123 11.1552
1 48.7912 29.6398 30.336
1 63.8341 20.9807 17.6863
1 57.6793 20.1392 18.3253
2 56.8121 20.5405 16.1203
2 61.6725 21.1477 22.4043
2 65.7985 18.0529 22.749
1 52.3695 30.7229 27.761
2 62.0652 28.8205 14.8062
1 45.7227 28.4448 33.682
1 60.7537 31.9565 14.8033
2 59.8173 44.5006 43.2387
1 55.6942 18.0797 29.2666
2 57.3116 44.5936 46.4114
2 55.1144 21.9903 29.5894
1 59.4354 21.9486 22.7936
1 55.8513 30.141 28.3954
1 56.7697 27.1091 20.9927
1 69.0087 24.2014 16.7837
2 57.4236 14.5411 18.9617
1 69.3006 22.117 35.0634
2 46.6185 15.7535 7.79304
2 69.301 15.946 24.2501
1 58.2647 29.0437 25.2745
1 59.9036 30.6259 42.4663
1 61.9477 19.8564 32.053
2 56.7496 13.961 22.7358
1 63.5664 16.7508 22.6007
1 55.1762 25.4162 25.8932
2 43.0295 25.4102 28.7235
2 57.4106 31.6192 15.7363
1 48.8269 16.4411 17.8034
2 55.7704 18.4836 35.3269
1 67.0843 20.1976 22.4974
2 60.3389 34.1603 18.1593
1 56.6824 29.5896 27.33
2 64.9876 18.6124 12.3368
1 68.5064 20.7488 13.6181
1 54.8014 14.9892 19.1971
2 44.6974 23.5004 29.9033
1 51.3672 16.1735 18.7355
1 65.6097 14.9845 31.235
1 59.9928 18.6106 31.2728
1 57.5237 40.3011 46.2743
1 68.7364 20.9885 35.3153
1 57.013 28.2016 16.1663
2 53.3293 17.2251 17.1287
1 69.1304 13.3072 13.0292
1 59.284 36.1299 43.5376
1 64.4071 20.271 31.2285
2 59.7054 20.9802 3.17311
1 49.3348 17.196 21.3045
1 53.0524 28.5048 22.2848
1 71.3387 8.1049 17.6703
2 54.8873 31.02 15.2858
1 65.4978 14.9887 18.9725
1 46.0853 20.3536 13.2936
2 51.2301 29.0592 34.5888
1 68.8823 14.053 11.8618
1 53.0744 30.8498 21.6638
2 54.4768 34.7619 28.2982
1 51.0894 29.5935 15.4523
1 52.4763 33.3333 20.7686
2 66.374 14.6224 20.9867
1 59.8471 20.1729 3.80012
1 41.9366 22.3622 20.6411
1 67.6397 19.7267 23.7282
1 59.3213 17.0342 29.3145
1 60.854 18.7867 34.5445
2 54.2793 26.2771 5.82865
1 69.9473 24.8698 16.3707
2 60.1624 34.9618 15.6638
1 55.3867 24.909 27.1624
1 48.3761 25.0365 17.6129
2 46.5551 30.2091 13.8869
1 46.563 26.8926 13.2914
2 68.0332 19.3382 5.9935
1 53.9834 28.9892 24.7948
1 56.5419 22.8322 17.6903
1 67.8627 6.9848 17.0288
1 62.6711 18.4488 36.3441
1 51.3651 29.9163 31.2022
1 60.625 18.4437 5.42042
1 52.8626 30.5347 26.6955
1 55.9742 33.4551 33.4843
2 67.9391 16.6896 29.5501
1 54.5622 20.5215 16.9567
1 62.7132 17.6145 8.36466
2 50.7017 31.1157 17.9163
1 55.5312 32.7517 28.442
1 44.8665 15.0758 16.4127
1 55.132 23.146 17.4792
1 52.9255 21.7172 17.9617
1 61.1466 22.4936 11.4012
1 55.8889 24.543 24.8339
2 58.3133 30.4958 23.6155
1 60.6882 27.8942 25.3763
1 69.4896 24.407 34.2686
2 56.2774 34.8253 28.1961
1 60.7032 18.5963 24.2489
1 56.5014 20.7809 30.1137
1 69.6807 1.89534 20.3749
1 68.1795 19.8018 35.5219
2 59.6014 25.3319 22.0023
1 67.5553 14.9228 22.8818
1 52.0693 30.2083 13.0912
1 58.8946 29.9854 15.7643
2 55.5588 19.4573 15.2496
1 69.7135 22.8067 25.6742
1 57.7444 41.7219 46.019
1 59.6769 22.7807 23.9258
2 62.6825 15.5087 29.8901
2 71.3205 0.421314 19.7855
2 56.1788 19.6562 20.1777
1 58.9785 16.7729 11.2959
2 63.5374 17.6311 18.8649
2 62.3358 15.639 25.0089
1 60.5096 24.4327 14.3549
1 42.3709 29.2043 32.7614
1 59.7664 16.9659 10.0112
1 56.0292 32.1728 32.916
1 70.9619 20.766 12.279
1 63.2959 22.7633 20.8705
1 70.8247 10.649 15.1901
1 57.3203 24.5837 25.0108
1 63.5345 21.9037 8.02619
1 64.155 14.9386 19.3824
1 65.7593 21.0709 16.1427
1 64.4247 19.331 13.0225
1 60.0655 23.0762 12.1463
2 62.899 30.1865 12.7116
1 69.9467 20.9032 13.3759
1 59.8401 18.8112 4.03324
1 66.1824 13.3749 13.8734
2 71.6036 5.54026 19.8476
1 57.4033 18.1638 32.3616
2 45.7751 29.4115 12.9035
1 61.4344 30.7542 14.1187
1 60.6024 19.5594 32.267
2 53.2807 28.1878 19.2424
1 54.5732 16.3058 32.1853
1 65.6644 16.3404 26.0282
1 57.8949 18.393 26.4605
1 69.7297 11.1059 22.6137
1 66.8093 20.6028 7.26494